********************************************************************************
*                       GENERAL UTILITY LATTICE PROGRAM                        *
*                                 Julian Gale                                  *
*                       Curtin Institute for Computation                       *
*                    School of Molecular and Life Sciences                     *
*                    Curtin University, Western Australia                      *
********************************************************************************
* Version = 6.1.2 * Last modified =   3rd November 2022                        *
********************************************************************************
*  optimise     - perform optimisation run                                     *
*  conp         - constant pressure calculation                                *
*  nosymmetry   - turn off symmetry after initial structure generation         *
********************************************************************************

  Job Started  at 14:15.04 20th April      2023                               

  Number of CPUs =     8


  Total number of configurations input =      1

********************************************************************************
*  Input for Configuration =   1 : ReferenceDataBase/BEB                       *
********************************************************************************

  Formula = Si64O128                                                    

  Number of irreducible atoms/shells =     320


  Total number atoms/shells =     320

  Dimensionality = 3               :  Bulk   



  Cartesian lattice vectors (Angstroms) :

       17.604868    0.000000    0.000000
       -0.000014   17.642062    0.000000
       -5.791438    0.000027   13.106248

  Cell parameters (Angstroms/Degrees):

  a =      17.6049    alpha =  89.9999
  b =      17.6421    beta  = 113.8399
  c =      14.3288    gamma =  90.0000

  Initial cell volume =        4070.619303 Angs**3

  Temperature of configuration =   0.00     K 

  Pressure of configuration =         0.000 GPa 

  Fractional coordinates of asymmetric unit :

--------------------------------------------------------------------------------
   No.  Atomic       x           y          z         Charge      Occupancy
        Label      (Frac)      (Frac)     (Frac)        (e)         (Frac)  
--------------------------------------------------------------------------------
      1 Si    c    0.603393 *  0.976930 *  0.376036 *   4.00000    1.000000    
      2 Si    c    0.384936 *  0.979366 *  0.110262 *   4.00000    1.000000    
      3 Si    c    0.101490 *  0.479365 *  0.381529 *   4.00000    1.000000    
      4 Si    c    0.883030 *  0.476930 *  0.115753 *   4.00000    1.000000    
      5 Si    c    0.384935 *  0.017784 *  0.610262 *   4.00000    1.000000    
      6 Si    c    0.603394 *  0.020220 *  0.876037 *   4.00000    1.000000    
      7 Si    c    0.883031 *  0.520219 *  0.615754 *   4.00000    1.000000    
      8 Si    c    0.101489 *  0.517784 *  0.881528 *   4.00000    1.000000    
      9 Si    c    0.477023 *  0.852132 *  0.381344 *   4.00000    1.000000    
     10 Si    c    0.511308 *  0.853110 *  0.110096 *   4.00000    1.000000    
     11 Si    c    0.975116 *  0.353109 *  0.381695 *   4.00000    1.000000    
     12 Si    c    0.009401 *  0.352132 *  0.110448 *   4.00000    1.000000    
     13 Si    c    0.511308 *  0.144040 *  0.610096 *   4.00000    1.000000    
     14 Si    c    0.477023 *  0.145017 *  0.881343 *   4.00000    1.000000    
     15 Si    c    0.009402 *  0.645017 *  0.610447 *   4.00000    1.000000    
     16 Si    c    0.975116 *  0.644040 *  0.881695 *   4.00000    1.000000    
     17 Si    c    0.698652 *  0.707466 *  0.609037 *   4.00000    1.000000    
     18 Si    c    0.287044 *  0.707149 *  0.882004 *   4.00000    1.000000    
     19 Si    c    0.199382 *  0.207149 *  0.609787 *   4.00000    1.000000    
     20 Si    c    0.787771 *  0.207466 *  0.882753 *   4.00000    1.000000    
     21 Si    c    0.287043 *  0.290001 *  0.382003 *   4.00000    1.000000    
     22 Si    c    0.698653 *  0.289684 *  0.109037 *   4.00000    1.000000    
     23 Si    c    0.787773 *  0.789683 *  0.382754 *   4.00000    1.000000    
     24 Si    c    0.199380 *  0.790000 *  0.109786 *   4.00000    1.000000    
     25 Si    c    0.824737 *  0.831831 *  0.603444 *   4.00000    1.000000    
     26 Si    c    0.164238 *  0.835321 *  0.890950 *   4.00000    1.000000    
     27 Si    c    0.322186 *  0.335321 *  0.600840 *   4.00000    1.000000    
     28 Si    c    0.661687 *  0.331831 *  0.888347 *   4.00000    1.000000    
     29 Si    c    0.164238 *  0.161828 *  0.390951 *   4.00000    1.000000    
     30 Si    c    0.824737 *  0.165318 *  0.103443 *   4.00000    1.000000    
     31 Si    c    0.661687 *  0.665319 *  0.388347 *   4.00000    1.000000    
     32 Si    c    0.322187 *  0.661829 *  0.100841 *   4.00000    1.000000    
     33 Si    c    0.578058 *  0.833596 *  0.611750 *   4.00000    1.000000    
     34 Si    c    0.408644 *  0.829853 *  0.878088 *   4.00000    1.000000    
     35 Si    c    0.077780 *  0.329853 *  0.613703 *   4.00000    1.000000    
     36 Si    c    0.908367 *  0.333595 *  0.880041 *   4.00000    1.000000    
     37 Si    c    0.408644 *  0.167297 *  0.378088 *   4.00000    1.000000    
     38 Si    c    0.578058 *  0.163554 *  0.111749 *   4.00000    1.000000    
     39 Si    c    0.908366 *  0.663554 *  0.380040 *   4.00000    1.000000    
     40 Si    c    0.077780 *  0.667296 *  0.113703 *   4.00000    1.000000    
     41 Si    c    0.703139 *  0.956786 *  0.605941 *   4.00000    1.000000    
     42 Si    c    0.285241 *  0.955540 *  0.879501 *   4.00000    1.000000    
     43 Si    c    0.201183 *  0.455540 *  0.612290 *   4.00000    1.000000    
     44 Si    c    0.783286 *  0.456786 *  0.885848 *   4.00000    1.000000    
     45 Si    c    0.285241 *  0.041610 *  0.379500 *   4.00000    1.000000    
     46 Si    c    0.703139 *  0.040364 *  0.105942 *   4.00000    1.000000    
     47 Si    c    0.783285 *  0.540364 *  0.385849 *   4.00000    1.000000    
     48 Si    c    0.201184 *  0.541609 *  0.112289 *   4.00000    1.000000    
     49 Si    c    0.492329 *  0.889045 *  0.745427 *   4.00000    1.000000    
     50 Si    c    0.994095 *  0.389044 *  0.746363 *   4.00000    1.000000    
     51 Si    c    0.492329 *  0.108106 *  0.245427 *   4.00000    1.000000    
     52 Si    c    0.994095 *  0.608104 *  0.246363 *   4.00000    1.000000    
     53 Si    c    0.687174 *  0.914939 *  0.238256 *   4.00000    1.000000    
     54 Si    c    0.302438 *  0.916155 *  0.248062 *   4.00000    1.000000    
     55 Si    c    0.183986 *  0.416155 *  0.243728 *   4.00000    1.000000    
     56 Si    c    0.799251 *  0.414939 *  0.253535 *   4.00000    1.000000    
     57 Si    c    0.302438 *  0.080994 *  0.748062 *   4.00000    1.000000    
     58 Si    c    0.687174 *  0.082210 *  0.738255 *   4.00000    1.000000    
     59 Si    c    0.799251 *  0.582211 *  0.753534 *   4.00000    1.000000    
     60 Si    c    0.183987 *  0.580995 *  0.743728 *   4.00000    1.000000    
     61 Si    c    0.490939 *  0.722314 *  0.244508 *   4.00000    1.000000    
     62 Si    c    0.995485 *  0.222314 *  0.247282 *   4.00000    1.000000    
     63 Si    c    0.490939 *  0.274836 *  0.744508 *   4.00000    1.000000    
     64 Si    c    0.995485 *  0.774835 *  0.747282 *   4.00000    1.000000    
     65 O     c    0.543677 *  0.904940 *  0.361873 *   0.86902    1.000000    
     66 O     c    0.456429 *  0.916034 *  0.135972 *   0.86902    1.000000    
     67 O     c    0.029999 *  0.416031 *  0.355819 *   0.86902    1.000000    
     68 O     c    0.942743 *  0.404938 *  0.129916 *   0.86902    1.000000    
     69 O     c    0.456426 *  0.081118 *  0.635972 *   0.86902    1.000000    
     70 O     c    0.543681 *  0.092212 *  0.861875 *   0.86902    1.000000    
     71 O     c    0.942748 *  0.592208 *  0.629918 *   0.86902    1.000000    
     72 O     c    0.029996 *  0.581116 *  0.855819 *   0.86902    1.000000    
     73 O     c    0.660698 *  0.991759 *  0.493503 *   0.86902    1.000000    
     74 O     c    0.334883 *  0.991007 *  0.990565 *   0.86902    1.000000    
     75 O     c    0.151541 *  0.491007 *  0.501226 *   0.86902    1.000000    
     76 O     c    0.825726 *  0.491760 *  0.998286 *   0.86902    1.000000    
     77 O     c    0.334883 *  0.006143 *  0.490564 *   0.86902    1.000000    
     78 O     c    0.660699 *  0.005390 *  0.993504 *   0.86902    1.000000    
     79 O     c    0.825727 *  0.505390 *  0.498287 *   0.86902    1.000000    
     80 O     c    0.151541 *  0.506142 *  0.001225 *   0.86902    1.000000    
     81 O     c    0.551311 *  0.052480 *  0.333214 *   0.86902    1.000000    
     82 O     c    0.425058 *  0.059451 *  0.155304 *   0.86902    1.000000    
     83 O     c    0.061364 *  0.559449 *  0.336487 *   0.86902    1.000000    
     84 O     c    0.935115 *  0.552478 *  0.158575 *   0.86902    1.000000    
     85 O     c    0.425059 *  0.937700 *  0.655303 *   0.86902    1.000000    
     86 O     c    0.551309 *  0.944672 *  0.833215 *   0.86902    1.000000    
     87 O     c    0.935113 *  0.444669 *  0.658576 *   0.86902    1.000000    
     88 O     c    0.061366 *  0.437699 *  0.836486 *   0.86902    1.000000    
     89 O     c    0.663463 *  0.958703 *  0.320430 *   0.86902    1.000000    
     90 O     c    0.320762 *  0.952354 *  0.156737 *   0.86902    1.000000    
     91 O     c    0.165664 *  0.452356 *  0.335054 *   0.86902    1.000000    
     92 O     c    0.822959 *  0.458704 *  0.171360 *   0.86902    1.000000    
     93 O     c    0.320760 *  0.044794 *  0.656736 *   0.86902    1.000000    
     94 O     c    0.663465 *  0.038445 *  0.820430 *   0.86902    1.000000    
     95 O     c    0.822961 *  0.538447 *  0.671360 *   0.86902    1.000000    
     96 O     c    0.165662 *  0.544795 *  0.835053 *   0.86902    1.000000    
     97 O     c    0.503521 *  0.837182 *  0.500551 *   0.86902    1.000000    
     98 O     c    0.479862 *  0.839402 *  0.990352 *   0.86902    1.000000    
     99 O     c    0.006563 *  0.339401 *  0.501438 *   0.86902    1.000000    
    100 O     c    0.982904 *  0.337181 *  0.991241 *   0.86902    1.000000    
    101 O     c    0.479861 *  0.157748 *  0.490352 *   0.86902    1.000000    
    102 O     c    0.503520 *  0.159969 *  0.000550 *   0.86902    1.000000    
    103 O     c    0.982903 *  0.659967 *  0.491239 *   0.86902    1.000000    
    104 O     c    0.006563 *  0.657747 *  0.001438 *   0.86902    1.000000    
    105 O     c    0.387744 *  0.891036 *  0.339242 *   0.86902    1.000000    
    106 O     c    0.605605 *  0.880124 *  0.149789 *   0.86902    1.000000    
    107 O     c    0.880821 *  0.380127 *  0.342002 *   0.86902    1.000000    
    108 O     c    0.098678 *  0.391039 *  0.152549 *   0.86902    1.000000    
    109 O     c    0.605603 *  0.117023 *  0.649788 *   0.86902    1.000000    
    110 O     c    0.387746 *  0.106110 *  0.839242 *   0.86902    1.000000    
    111 O     c    0.098681 *  0.606114 *  0.652548 *   0.86902    1.000000    
    112 O     c    0.880820 *  0.617025 *  0.842002 *   0.86902    1.000000    
    113 O     c    0.473247 *  0.772403 *  0.326841 *   0.86902    1.000000    
    114 O     c    0.504726 *  0.774769 *  0.161717 *   0.86902    1.000000    
    115 O     c    0.981695 *  0.274767 *  0.330072 *   0.86902    1.000000    
    116 O     c    0.013180 *  0.272403 *  0.164953 *   0.86902    1.000000    
    117 O     c    0.504728 *  0.222382 *  0.661718 *   0.86902    1.000000    
    118 O     c    0.473244 *  0.224746 *  0.826837 *   0.86902    1.000000    
    119 O     c    0.013177 *  0.724746 *  0.664950 *   0.86902    1.000000    
    120 O     c    0.981698 *  0.722381 *  0.830074 *   0.86902    1.000000    
    121 O     c    0.775574 *  0.758539 *  0.614916 *   0.86902    1.000000    
    122 O     c    0.215543 *  0.763574 *  0.880180 *   0.86902    1.000000    
    123 O     c    0.270882 *  0.263574 *  0.611611 *   0.86902    1.000000    
    124 O     c    0.710849 *  0.258538 *  0.876875 *   0.86902    1.000000    
    125 O     c    0.215543 *  0.233576 *  0.380180 *   0.86902    1.000000    
    126 O     c    0.775576 *  0.238612 *  0.114916 *   0.86902    1.000000    
    127 O     c    0.710850 *  0.738611 *  0.376875 *   0.86902    1.000000    
    128 O     c    0.270881 *  0.733576 *  0.111611 *   0.86902    1.000000    
    129 O     c    0.628068 *  0.755798 *  0.625047 *   0.86902    1.000000    
    130 O     c    0.361966 *  0.750314 *  0.868293 *   0.86902    1.000000    
    131 O     c    0.124459 *  0.250314 *  0.623498 *   0.86902    1.000000    
    132 O     c    0.858355 *  0.255798 *  0.866744 *   0.86902    1.000000    
    133 O     c    0.361965 *  0.246836 *  0.368292 *   0.86902    1.000000    
    134 O     c    0.628069 *  0.241351 *  0.125047 *   0.86902    1.000000    
    135 O     c    0.858357 *  0.741352 *  0.366744 *   0.86902    1.000000    
    136 O     c    0.124458 *  0.746835 *  0.123498 *   0.86902    1.000000    
    137 O     c    0.731668 *  0.646452 *  0.699098 *   0.86902    1.000000    
    138 O     c    0.247577 *  0.649965 *  0.787706 *   0.86902    1.000000    
    139 O     c    0.238850 *  0.149966 *  0.704086 *   0.86902    1.000000    
    140 O     c    0.754755 *  0.146453 *  0.792691 *   0.86902    1.000000    
    141 O     c    0.247575 *  0.347184 *  0.287704 *   0.86902    1.000000    
    142 O     c    0.731670 *  0.350696 *  0.199100 *   0.86902    1.000000    
    143 O     c    0.754756 *  0.850697 *  0.292692 *   0.86902    1.000000    
    144 O     c    0.238848 *  0.847184 *  0.204084 *   0.86902    1.000000    
    145 O     c    0.659891 *  0.665982 *  0.499751 *   0.86902    1.000000    
    146 O     c    0.322993 *  0.662250 *  0.988905 *   0.86902    1.000000    
    147 O     c    0.163433 *  0.162249 *  0.502887 *   0.86902    1.000000    
    148 O     c    0.826532 *  0.165981 *  0.992038 *   0.86902    1.000000    
    149 O     c    0.322991 *  0.334901 *  0.488903 *   0.86902    1.000000    
    150 O     c    0.659893 *  0.331169 *  0.999752 *   0.86902    1.000000    
    151 O     c    0.826534 *  0.831167 *  0.492040 *   0.86902    1.000000    
    152 O     c    0.163431 *  0.834900 *  0.002886 *   0.86902    1.000000    
    153 O     c    0.784275 *  0.909373 *  0.618949 *   0.86902    1.000000    
    154 O     c    0.202923 *  0.913741 *  0.874475 *   0.86902    1.000000    
    155 O     c    0.283501 *  0.413741 *  0.617316 *   0.86902    1.000000    
    156 O     c    0.702149 *  0.409372 *  0.872839 *   0.86902    1.000000    
    157 O     c    0.202923 *  0.083408 *  0.374474 *   0.86902    1.000000    
    158 O     c    0.784275 *  0.087778 *  0.118952 *   0.86902    1.000000    
    159 O     c    0.702149 *  0.587777 *  0.372841 *   0.86902    1.000000    
    160 O     c    0.283501 *  0.583408 *  0.117315 *   0.86902    1.000000    
    161 O     c    0.916855 *  0.828407 *  0.690385 *   0.86902    1.000000    
    162 O     c    0.071885 *  0.830649 *  0.804665 *   0.86902    1.000000    
    163 O     c    0.414540 *  0.330650 *  0.687123 *   0.86902    1.000000    
    164 O     c    0.569569 *  0.328408 *  0.801407 *   0.86902    1.000000    
    165 O     c    0.071884 *  0.166499 *  0.304668 *   0.86902    1.000000    
    166 O     c    0.916856 *  0.168742 *  0.190383 *   0.86902    1.000000    
    167 O     c    0.569570 *  0.668742 *  0.301405 *   0.86902    1.000000    
    168 O     c    0.414540 *  0.666500 *  0.187125 *   0.86902    1.000000    
    169 O     c    0.637297 *  0.905323 *  0.627673 *   0.86902    1.000000    
    170 O     c    0.344067 *  0.898303 *  0.853105 *   0.86902    1.000000    
    171 O     c    0.142357 *  0.398303 *  0.638686 *   0.86902    1.000000    
    172 O     c    0.849129 *  0.405323 *  0.864118 *   0.86902    1.000000    
    173 O     c    0.344067 *  0.098847 *  0.353104 *   0.86902    1.000000    
    174 O     c    0.637295 *  0.091826 *  0.127672 *   0.86902    1.000000    
    175 O     c    0.849127 *  0.591827 *  0.364116 *   0.86902    1.000000    
    176 O     c    0.142357 *  0.598846 *  0.138685 *   0.86902    1.000000    
    177 O     c    0.542553 *  0.836774 *  0.698427 *   0.86902    1.000000    
    178 O     c    0.448515 *  0.831795 *  0.795433 *   0.86902    1.000000    
    179 O     c    0.037909 *  0.331793 *  0.696356 *   0.86902    1.000000    
    180 O     c    0.943873 *  0.336772 *  0.793365 *   0.86902    1.000000    
    181 O     c    0.448516 *  0.165356 *  0.295434 *   0.86902    1.000000    
    182 O     c    0.542551 *  0.160377 *  0.198425 *   0.86902    1.000000    
    183 O     c    0.943872 *  0.660376 *  0.293363 *   0.86902    1.000000    
    184 O     c    0.037909 *  0.665355 *  0.196357 *   0.86902    1.000000    
    185 O     c    0.730119 *  0.024567 *  0.687377 *   0.86902    1.000000    
    186 O     c    0.258424 *  0.021149 *  0.794790 *   0.86902    1.000000    
    187 O     c    0.228000 *  0.521149 *  0.697001 *   0.86902    1.000000    
    188 O     c    0.756306 *  0.524566 *  0.804412 *   0.86902    1.000000    
    189 O     c    0.258425 *  0.976000 *  0.294789 *   0.86902    1.000000    
    190 O     c    0.730118 *  0.972583 *  0.187378 *   0.86902    1.000000    
    191 O     c    0.756306 *  0.472583 *  0.304413 *   0.86902    1.000000    
    192 O     c    0.228000    0.476000    0.197000     0.86902    1.000000    
    193 O     s    0.543677 *  0.904940 *  0.361873 *  -2.86902    1.000000    
    194 O     s    0.456429 *  0.916034 *  0.135972 *  -2.86902    1.000000    
    195 O     s    0.029999 *  0.416031 *  0.355819 *  -2.86902    1.000000    
    196 O     s    0.942743 *  0.404938 *  0.129916 *  -2.86902    1.000000    
    197 O     s    0.456426 *  0.081118 *  0.635972 *  -2.86902    1.000000    
    198 O     s    0.543681 *  0.092212 *  0.861875 *  -2.86902    1.000000    
    199 O     s    0.942748 *  0.592208 *  0.629918 *  -2.86902    1.000000    
    200 O     s    0.029996 *  0.581116 *  0.855819 *  -2.86902    1.000000    
    201 O     s    0.660698 *  0.991759 *  0.493503 *  -2.86902    1.000000    
    202 O     s    0.334883 *  0.991007 *  0.990565 *  -2.86902    1.000000    
    203 O     s    0.151541 *  0.491007 *  0.501226 *  -2.86902    1.000000    
    204 O     s    0.825726 *  0.491760 *  0.998286 *  -2.86902    1.000000    
    205 O     s    0.334883 *  0.006143 *  0.490564 *  -2.86902    1.000000    
    206 O     s    0.660699 *  0.005390 *  0.993504 *  -2.86902    1.000000    
    207 O     s    0.825727 *  0.505390 *  0.498287 *  -2.86902    1.000000    
    208 O     s    0.151541 *  0.506142 *  0.001225 *  -2.86902    1.000000    
    209 O     s    0.551311 *  0.052480 *  0.333214 *  -2.86902    1.000000    
    210 O     s    0.425058 *  0.059451 *  0.155304 *  -2.86902    1.000000    
    211 O     s    0.061364 *  0.559449 *  0.336487 *  -2.86902    1.000000    
    212 O     s    0.935115 *  0.552478 *  0.158575 *  -2.86902    1.000000    
    213 O     s    0.425059 *  0.937700 *  0.655303 *  -2.86902    1.000000    
    214 O     s    0.551309 *  0.944672 *  0.833215 *  -2.86902    1.000000    
    215 O     s    0.935113 *  0.444669 *  0.658576 *  -2.86902    1.000000    
    216 O     s    0.061366 *  0.437699 *  0.836486 *  -2.86902    1.000000    
    217 O     s    0.663463 *  0.958703 *  0.320430 *  -2.86902    1.000000    
    218 O     s    0.320762 *  0.952354 *  0.156737 *  -2.86902    1.000000    
    219 O     s    0.165664 *  0.452356 *  0.335054 *  -2.86902    1.000000    
    220 O     s    0.822959 *  0.458704 *  0.171360 *  -2.86902    1.000000    
    221 O     s    0.320760 *  0.044794 *  0.656736 *  -2.86902    1.000000    
    222 O     s    0.663465 *  0.038445 *  0.820430 *  -2.86902    1.000000    
    223 O     s    0.822961 *  0.538447 *  0.671360 *  -2.86902    1.000000    
    224 O     s    0.165662 *  0.544795 *  0.835053 *  -2.86902    1.000000    
    225 O     s    0.503521 *  0.837182 *  0.500551 *  -2.86902    1.000000    
    226 O     s    0.479862 *  0.839402 *  0.990352 *  -2.86902    1.000000    
    227 O     s    0.006563 *  0.339401 *  0.501438 *  -2.86902    1.000000    
    228 O     s    0.982904 *  0.337181 *  0.991241 *  -2.86902    1.000000    
    229 O     s    0.479861 *  0.157748 *  0.490352 *  -2.86902    1.000000    
    230 O     s    0.503520 *  0.159969 *  0.000550 *  -2.86902    1.000000    
    231 O     s    0.982903 *  0.659967 *  0.491239 *  -2.86902    1.000000    
    232 O     s    0.006563 *  0.657747 *  0.001438 *  -2.86902    1.000000    
    233 O     s    0.387744 *  0.891036 *  0.339242 *  -2.86902    1.000000    
    234 O     s    0.605605 *  0.880124 *  0.149789 *  -2.86902    1.000000    
    235 O     s    0.880821 *  0.380127 *  0.342002 *  -2.86902    1.000000    
    236 O     s    0.098678 *  0.391039 *  0.152549 *  -2.86902    1.000000    
    237 O     s    0.605603 *  0.117023 *  0.649788 *  -2.86902    1.000000    
    238 O     s    0.387746 *  0.106110 *  0.839242 *  -2.86902    1.000000    
    239 O     s    0.098681 *  0.606114 *  0.652548 *  -2.86902    1.000000    
    240 O     s    0.880820 *  0.617025 *  0.842002 *  -2.86902    1.000000    
    241 O     s    0.473247 *  0.772403 *  0.326841 *  -2.86902    1.000000    
    242 O     s    0.504726 *  0.774769 *  0.161717 *  -2.86902    1.000000    
    243 O     s    0.981695 *  0.274767 *  0.330072 *  -2.86902    1.000000    
    244 O     s    0.013180 *  0.272403 *  0.164953 *  -2.86902    1.000000    
    245 O     s    0.504728 *  0.222382 *  0.661718 *  -2.86902    1.000000    
    246 O     s    0.473244 *  0.224746 *  0.826837 *  -2.86902    1.000000    
    247 O     s    0.013177 *  0.724746 *  0.664950 *  -2.86902    1.000000    
    248 O     s    0.981698 *  0.722381 *  0.830074 *  -2.86902    1.000000    
    249 O     s    0.775574 *  0.758539 *  0.614916 *  -2.86902    1.000000    
    250 O     s    0.215543 *  0.763574 *  0.880180 *  -2.86902    1.000000    
    251 O     s    0.270882 *  0.263574 *  0.611611 *  -2.86902    1.000000    
    252 O     s    0.710849 *  0.258538 *  0.876875 *  -2.86902    1.000000    
    253 O     s    0.215543 *  0.233576 *  0.380180 *  -2.86902    1.000000    
    254 O     s    0.775576 *  0.238612 *  0.114916 *  -2.86902    1.000000    
    255 O     s    0.710850 *  0.738611 *  0.376875 *  -2.86902    1.000000    
    256 O     s    0.270881 *  0.733576 *  0.111611 *  -2.86902    1.000000    
    257 O     s    0.628068 *  0.755798 *  0.625047 *  -2.86902    1.000000    
    258 O     s    0.361966 *  0.750314 *  0.868293 *  -2.86902    1.000000    
    259 O     s    0.124459 *  0.250314 *  0.623498 *  -2.86902    1.000000    
    260 O     s    0.858355 *  0.255798 *  0.866744 *  -2.86902    1.000000    
    261 O     s    0.361965 *  0.246836 *  0.368292 *  -2.86902    1.000000    
    262 O     s    0.628069 *  0.241351 *  0.125047 *  -2.86902    1.000000    
    263 O     s    0.858357 *  0.741352 *  0.366744 *  -2.86902    1.000000    
    264 O     s    0.124458 *  0.746835 *  0.123498 *  -2.86902    1.000000    
    265 O     s    0.731668 *  0.646452 *  0.699098 *  -2.86902    1.000000    
    266 O     s    0.247577 *  0.649965 *  0.787706 *  -2.86902    1.000000    
    267 O     s    0.238850 *  0.149966 *  0.704086 *  -2.86902    1.000000    
    268 O     s    0.754755 *  0.146453 *  0.792691 *  -2.86902    1.000000    
    269 O     s    0.247575 *  0.347184 *  0.287704 *  -2.86902    1.000000    
    270 O     s    0.731670 *  0.350696 *  0.199100 *  -2.86902    1.000000    
    271 O     s    0.754756 *  0.850697 *  0.292692 *  -2.86902    1.000000    
    272 O     s    0.238848 *  0.847184 *  0.204084 *  -2.86902    1.000000    
    273 O     s    0.659891 *  0.665982 *  0.499751 *  -2.86902    1.000000    
    274 O     s    0.322993 *  0.662250 *  0.988905 *  -2.86902    1.000000    
    275 O     s    0.163433 *  0.162249 *  0.502887 *  -2.86902    1.000000    
    276 O     s    0.826532 *  0.165981 *  0.992038 *  -2.86902    1.000000    
    277 O     s    0.322991 *  0.334901 *  0.488903 *  -2.86902    1.000000    
    278 O     s    0.659893 *  0.331169 *  0.999752 *  -2.86902    1.000000    
    279 O     s    0.826534 *  0.831167 *  0.492040 *  -2.86902    1.000000    
    280 O     s    0.163431 *  0.834900 *  0.002886 *  -2.86902    1.000000    
    281 O     s    0.784275 *  0.909373 *  0.618949 *  -2.86902    1.000000    
    282 O     s    0.202923 *  0.913741 *  0.874475 *  -2.86902    1.000000    
    283 O     s    0.283501 *  0.413741 *  0.617316 *  -2.86902    1.000000    
    284 O     s    0.702149 *  0.409372 *  0.872839 *  -2.86902    1.000000    
    285 O     s    0.202923 *  0.083408 *  0.374474 *  -2.86902    1.000000    
    286 O     s    0.784275 *  0.087778 *  0.118952 *  -2.86902    1.000000    
    287 O     s    0.702149 *  0.587777 *  0.372841 *  -2.86902    1.000000    
    288 O     s    0.283501 *  0.583408 *  0.117315 *  -2.86902    1.000000    
    289 O     s    0.916855 *  0.828407 *  0.690385 *  -2.86902    1.000000    
    290 O     s    0.071885 *  0.830649 *  0.804665 *  -2.86902    1.000000    
    291 O     s    0.414540 *  0.330650 *  0.687123 *  -2.86902    1.000000    
    292 O     s    0.569569 *  0.328408 *  0.801407 *  -2.86902    1.000000    
    293 O     s    0.071884 *  0.166499 *  0.304668 *  -2.86902    1.000000    
    294 O     s    0.916856 *  0.168742 *  0.190383 *  -2.86902    1.000000    
    295 O     s    0.569570 *  0.668742 *  0.301405 *  -2.86902    1.000000    
    296 O     s    0.414540 *  0.666500 *  0.187125 *  -2.86902    1.000000    
    297 O     s    0.637297 *  0.905323 *  0.627673 *  -2.86902    1.000000    
    298 O     s    0.344067 *  0.898303 *  0.853105 *  -2.86902    1.000000    
    299 O     s    0.142357 *  0.398303 *  0.638686 *  -2.86902    1.000000    
    300 O     s    0.849129 *  0.405323 *  0.864118 *  -2.86902    1.000000    
    301 O     s    0.344067 *  0.098847 *  0.353104 *  -2.86902    1.000000    
    302 O     s    0.637295 *  0.091826 *  0.127672 *  -2.86902    1.000000    
    303 O     s    0.849127 *  0.591827 *  0.364116 *  -2.86902    1.000000    
    304 O     s    0.142357 *  0.598846 *  0.138685 *  -2.86902    1.000000    
    305 O     s    0.542553 *  0.836774 *  0.698427 *  -2.86902    1.000000    
    306 O     s    0.448515 *  0.831795 *  0.795433 *  -2.86902    1.000000    
    307 O     s    0.037909 *  0.331793 *  0.696356 *  -2.86902    1.000000    
    308 O     s    0.943873 *  0.336772 *  0.793365 *  -2.86902    1.000000    
    309 O     s    0.448516 *  0.165356 *  0.295434 *  -2.86902    1.000000    
    310 O     s    0.542551 *  0.160377 *  0.198425 *  -2.86902    1.000000    
    311 O     s    0.943872 *  0.660376 *  0.293363 *  -2.86902    1.000000    
    312 O     s    0.037909 *  0.665355 *  0.196357 *  -2.86902    1.000000    
    313 O     s    0.730119 *  0.024567 *  0.687377 *  -2.86902    1.000000    
    314 O     s    0.258424 *  0.021149 *  0.794790 *  -2.86902    1.000000    
    315 O     s    0.228000 *  0.521149 *  0.697001 *  -2.86902    1.000000    
    316 O     s    0.756306 *  0.524566 *  0.804412 *  -2.86902    1.000000    
    317 O     s    0.258425 *  0.976000 *  0.294789 *  -2.86902    1.000000    
    318 O     s    0.730118 *  0.972583 *  0.187378 *  -2.86902    1.000000    
    319 O     s    0.756306 *  0.472583 *  0.304413 *  -2.86902    1.000000    
    320 O     s    0.228000 *  0.476000 *  0.197000 *  -2.86902    1.000000    
--------------------------------------------------------------------------------



********************************************************************************
*  General input information                                                   *
********************************************************************************

  Species output for all configurations : 

--------------------------------------------------------------------------------
  Species    Type    Atomic    Atomic    Charge       Radii (Angs)     Library
                     Number     Mass       (e)     Cova   Ionic  VDW   Symbol
--------------------------------------------------------------------------------
    O        Core        8      16.00   0.869020   0.730  0.000  1.360 O        
    O        Shell       8       0.00  -2.869020   0.730  0.000  0.000 O        
    Si       Core       14      28.09   4.000000   1.200  0.000  2.100 Si       
--------------------------------------------------------------------------------


  Lattice summation method               =    Ewald          (3-D)
                                         =    Parry          (2-D)
                                         =    Saunders et al (1-D)
  Accuracy factor for lattice sums       =   12.000


  Analytic derivatives to be used

  Time limit = Infinity

  Maximum range for interatomic potentials =    100000.000000 Angstroms

  General interatomic potentials :

--------------------------------------------------------------------------------
Atom  Types   Potential      Parameter       Value         Units   Cutoffs(Ang)
  1     2                                                            Min /  Max 
--------------------------------------------------------------------------------
Si   c O    s Buckingham    Buckingham A     1283.9070    eV        0.000 10.000
                            Buckingham rho  0.32052000    Ang       
                            Buckingham C     10.661580    eV*Ang^6  
--------------------------------------------------------------------------------
O    s O    s Buckingham    Buckingham A     22764.000    eV        0.000 12.000
                            Buckingham rho  0.14900000    Ang       
                            Buckingham C     27.879000    eV*Ang^6  
--------------------------------------------------------------------------------
O    c O    s Spring (c-s)  Spring k 2       74.920000    eV*Ang^-2 0.000  1.100
                            Spring k 4       0.0000000    eV*Ang^-4 
--------------------------------------------------------------------------------

  General Three-body potentials :

--------------------------------------------------------------------------------
  Atoms       Potential      Parameter       Value         Units   Cutoffs(Ang)
  1 / 2 / 3                                                          Min /  Max 
--------------------------------------------------------------------------------
Si    core    Harmonic      Three-body cnst  2.0972400    eV*rad^-2 0.000  1.900
O     shel                  Three-body angl  109.47000    degrees   0.000  1.900
O     shel                  Three-body k4    0.0000000    eV*rad^-4 0.000  3.500
                            Three-body k3    0.0000000    eV*rad^-3 
--------------------------------------------------------------------------------
Si    core    Harmonic      Three-body cnst  2.0972400    eV*rad^-2 0.000  1.900
O     shel                  Three-body angl  109.47000    degrees   0.000  1.900
õ(    shel                  Three-body k4    0.0000000    eV*rad^-4 0.000  3.500
                            Three-body k3    0.0000000    eV*rad^-3 
--------------------------------------------------------------------------------
Si    core    Harmonic      Three-body cnst  2.0972400    eV*rad^-2 0.000  1.900
õ(    shel                  Three-body angl  109.47000    degrees   0.000  1.900
õ(    shel                  Three-body k4    0.0000000    eV*rad^-4 0.000  3.500
                            Three-body k3    0.0000000    eV*rad^-3 
--------------------------------------------------------------------------------

********************************************************************************
*  Output for configuration   1 : ReferenceDataBase/BEB                        *
********************************************************************************


  Components of energy : 

--------------------------------------------------------------------------------
  Interatomic potentials     =        2028.81969673 eV    
  Three-body potentials      =           0.38458213 eV    
  Monopole - monopole (real) =       -7928.55543451 eV    
  Monopole - monopole (recip)=       -2234.74242699 eV    
  Monopole - monopole (total)=      -10163.29786150 eV    
--------------------------------------------------------------------------------
  Total lattice energy       =       -8134.09358264 eV    
--------------------------------------------------------------------------------
  Total lattice energy       =         -784815.6897 kJ/(mole unit cells)
--------------------------------------------------------------------------------


  Number of variables =      963

  Maximum number of calculations  =           500
  Maximum Hessian update interval =            10
  Maximum step size               =   0.300000000
  Maximum parameter tolerance     =   0.000010000
  Maximum function  tolerance     =   0.000010000
  Maximum gradient  tolerance     =   0.001000000
  Maximum gradient  component     =   0.010000000

  Cell parameters to be optimised using strains

  Newton-Raphson optimiser to be used

  BFGS hessian update to be used

  General 2-D hessian to be used

  Minimiser to switch to RFO
  When gradient norm is less than     0.080000

  Switch max step size to       0.30000000 when gnorm is less than     0.005000

  Dumpfile to be written after every cycle

  Start of bulk optimisation :

  Cycle:      0 Energy:     -8134.093583  Gnorm:      3.863574  CPU:    0.206
  ** Hessian calculated **
  Cycle:      1 Energy:     -8197.317412  Gnorm:      2.175212  CPU:    0.438
  ** Hessian calculated **
  Cycle:      2 Energy:     -8222.673775  Gnorm:      0.528833  CPU:    0.694
  ** Hessian calculated **
  Cycle:      3 Energy:     -8227.430610  Gnorm:      0.044902  CPU:    0.990
  ** Hessian has required structure
  Cycle:      4 Energy:     -8227.447333  Gnorm:      0.028144  CPU:    1.146
  ** Hessian has required structure
  Cycle:      5 Energy:     -8227.457642  Gnorm:      0.022986  CPU:    1.307
  ** Hessian has required structure
  Cycle:      6 Energy:     -8227.465349  Gnorm:      0.019404  CPU:    1.444
  ** Hessian has required structure
  Cycle:      7 Energy:     -8227.469692  Gnorm:      0.015812  CPU:    1.581
  ** Hessian has required structure
  Cycle:      8 Energy:     -8227.473511  Gnorm:      0.014797  CPU:    1.738
  ** Hessian has required structure
  Cycle:      9 Energy:     -8227.477472  Gnorm:      0.012100  CPU:    1.896
  ** Hessian has required structure
  Cycle:     10 Energy:     -8227.480626  Gnorm:      0.013928  CPU:    2.057
  ** Hessian has required structure
  Cycle:     11 Energy:     -8227.483251  Gnorm:      0.011405  CPU:    2.195
  ** Hessian has required structure
  Cycle:     12 Energy:     -8227.484687  Gnorm:      0.012431  CPU:    2.332
  ** Hessian has required structure
  Cycle:     13 Energy:     -8227.542406  Gnorm:      0.007020  CPU:    2.597
  ** Hessian has required structure
  Cycle:     14 Energy:     -8227.546334  Gnorm:      0.002967  CPU:    2.735
  ** Hessian has required structure
  Cycle:     15 Energy:     -8227.547142  Gnorm:      0.001171  CPU:    2.873
  ** Hessian has required structure
  Cycle:     16 Energy:     -8227.547837  Gnorm:      0.001062  CPU:    3.033
  ** Hessian has required structure
  Cycle:     17 Energy:     -8227.547936  Gnorm:      0.000939  CPU:    3.170
  ** Hessian has required structure
  Cycle:     18 Energy:     -8227.548126  Gnorm:      0.000381  CPU:    3.308
  ** Hessian has required structure
  Cycle:     19 Energy:     -8227.548168  Gnorm:      0.000180  CPU:    3.444
  ** Hessian has required structure


  **** Optimisation achieved ****


  Final energy =   -8227.54817241 eV      
  Final Gnorm  =       0.00003677

  Components of energy : 

--------------------------------------------------------------------------------
  Interatomic potentials     =        2228.86902774 eV    
  Three-body potentials      =           1.02555901 eV    
  Monopole - monopole (real) =       -7287.21531510 eV    
  Monopole - monopole (recip)=       -3170.22744406 eV    
  Monopole - monopole (total)=      -10457.44275916 eV    
--------------------------------------------------------------------------------
  Total lattice energy       =       -8227.54817241 eV    
--------------------------------------------------------------------------------
  Total lattice energy       =         -793832.6290 kJ/(mole unit cells)
--------------------------------------------------------------------------------

  Final fractional coordinates of atoms :

--------------------------------------------------------------------------------
   No.  Atomic        x           y          z          Radius
        Label       (Frac)      (Frac)     (Frac)       (Angs) 
--------------------------------------------------------------------------------
     1  Si    c     0.603407    0.976911    0.375985    0.000000
     2  Si    c     0.384966    0.979365    0.110217    0.000000
     3  Si    c     0.101495    0.479366    0.381520    0.000000
     4  Si    c     0.883047    0.476907    0.115745    0.000000
     5  Si    c     0.384959    0.017764    0.610211    0.000000
     6  Si    c     0.603408    0.020221    0.875986    0.000000
     7  Si    c     0.883048    0.520219    0.615747    0.000000
     8  Si    c     0.101486    0.517763    0.881514    0.000000
     9  Si    c     0.477045    0.852116    0.381315    0.000000
    10  Si    c     0.511330    0.853102    0.110063    0.000000
    11  Si    c     0.975126    0.353102    0.381662    0.000000
    12  Si    c     0.009408    0.352114    0.110414    0.000000
    13  Si    c     0.511327    0.144027    0.610067    0.000000
    14  Si    c     0.477046    0.145015    0.881316    0.000000
    15  Si    c     0.009410    0.645013    0.610413    0.000000
    16  Si    c     0.975123    0.644026    0.881667    0.000000
    17  Si    c     0.698653    0.707455    0.608993    0.000000
    18  Si    c     0.287064    0.707137    0.881979    0.000000
    19  Si    c     0.199397    0.207135    0.609753    0.000000
    20  Si    c     0.787795    0.207456    0.882730    0.000000
    21  Si    c     0.287057    0.289994    0.381977    0.000000
    22  Si    c     0.698659    0.289673    0.108999    0.000000
    23  Si    c     0.787799    0.789673    0.382737    0.000000
    24  Si    c     0.199389    0.789991    0.109750    0.000000
    25  Si    c     0.824759    0.831806    0.603434    0.000000
    26  Si    c     0.164265    0.835325    0.890924    0.000000
    27  Si    c     0.322191    0.335324    0.600807    0.000000
    28  Si    c     0.661696    0.331813    0.888304    0.000000
    29  Si    c     0.164262    0.161805    0.390923    0.000000
    30  Si    c     0.824758    0.165317    0.103426    0.000000
    31  Si    c     0.661694    0.665321    0.388298    0.000000
    32  Si    c     0.322189    0.661804    0.100806    0.000000
    33  Si    c     0.578073    0.833600    0.611715    0.000000
    34  Si    c     0.408662    0.829831    0.878050    0.000000
    35  Si    c     0.077790    0.329826    0.613673    0.000000
    36  Si    c     0.908379    0.333596    0.880012    0.000000
    37  Si    c     0.408662    0.167302    0.378055    0.000000
    38  Si    c     0.578074    0.163532    0.111718    0.000000
    39  Si    c     0.908380    0.663529    0.380013    0.000000
    40  Si    c     0.077792    0.667298    0.113680    0.000000
    41  Si    c     0.703158    0.956780    0.605888    0.000000
    42  Si    c     0.285267    0.955527    0.879452    0.000000
    43  Si    c     0.201187    0.455525    0.612284    0.000000
    44  Si    c     0.783297    0.456781    0.885841    0.000000
    45  Si    c     0.285266    0.041603    0.379447    0.000000
    46  Si    c     0.703157    0.040348    0.105890    0.000000
    47  Si    c     0.783297    0.540348    0.385844    0.000000
    48  Si    c     0.201187    0.541602    0.112278    0.000000
    49  Si    c     0.492335    0.889037    0.745392    0.000000
    50  Si    c     0.994116    0.389031    0.746332    0.000000
    51  Si    c     0.492338    0.108097    0.245398    0.000000
    52  Si    c     0.994119    0.608092    0.246338    0.000000
    53  Si    c     0.687199    0.914920    0.238212    0.000000
    54  Si    c     0.302466    0.916144    0.248008    0.000000
    55  Si    c     0.183986    0.416148    0.243718    0.000000
    56  Si    c     0.799259    0.414923    0.253521    0.000000
    57  Si    c     0.302467    0.080982    0.748013    0.000000
    58  Si    c     0.687195    0.082206    0.738209    0.000000
    59  Si    c     0.799255    0.582210    0.753519    0.000000
    60  Si    c     0.183987    0.580986    0.743722    0.000000
    61  Si    c     0.490936    0.722301    0.244467    0.000000
    62  Si    c     0.995516    0.222301    0.247255    0.000000
    63  Si    c     0.490938    0.274828    0.744473    0.000000
    64  Si    c     0.995519    0.774827    0.747263    0.000000
    65  O     c     0.543730    0.904897    0.361864    0.000000
    66  O     c     0.456508    0.916074    0.135964    0.000000
    67  O     c     0.029961    0.416069    0.355776    0.000000
    68  O     c     0.942716    0.404884    0.129869    0.000000
    69  O     c     0.456492    0.081062    0.635955    0.000000
    70  O     c     0.543739    0.092243    0.861865    0.000000
    71  O     c     0.942727    0.592232    0.629868    0.000000
    72  O     c     0.029938    0.581047    0.855768    0.000000
    73  O     c     0.660741    0.991748    0.493443    0.000000
    74  O     c     0.334939    0.990992    0.990512    0.000000
    75  O     c     0.151528    0.490994    0.501224    0.000000
    76  O     c     0.825723    0.491748    0.998285    0.000000
    77  O     c     0.334926    0.006135    0.490508    0.000000
    78  O     c     0.660734    0.005380    0.993446    0.000000
    79  O     c     0.825715    0.505382    0.498289    0.000000
    80  O     c     0.151516    0.506135    0.001218    0.000000
    81  O     c     0.551287    0.052446    0.333178    0.000000
    82  O     c     0.425039    0.059467    0.155267    0.000000
    83  O     c     0.061415    0.559466    0.336476    0.000000
    84  O     c     0.935178    0.552436    0.158559    0.000000
    85  O     c     0.425039    0.937665    0.655256    0.000000
    86  O     c     0.551278    0.944692    0.833172    0.000000
    87  O     c     0.935168    0.444684    0.658555    0.000000
    88  O     c     0.061419    0.437659    0.836463    0.000000
    89  O     c     0.663454    0.958714    0.320338    0.000000
    90  O     c     0.320784    0.952314    0.156660    0.000000
    91  O     c     0.165675    0.452323    0.335068    0.000000
    92  O     c     0.822993    0.458717    0.171386    0.000000
    93  O     c     0.320779    0.044806    0.656663    0.000000
    94  O     c     0.663461    0.038413    0.820345    0.000000
    95  O     c     0.823002    0.538418    0.671394    0.000000
    96  O     c     0.165665    0.544820    0.835069    0.000000
    97  O     c     0.503523    0.837172    0.500522    0.000000
    98  O     c     0.479869    0.839411    0.990315    0.000000
    99  O     c     0.006584    0.339395    0.501406    0.000000
   100  O     c     0.982929    0.337174    0.991205    0.000000
   101  O     c     0.479868    0.157732    0.490323    0.000000
   102  O     c     0.503525    0.159958    0.000524    0.000000
   103  O     c     0.982930    0.659956    0.491206    0.000000
   104  O     c     0.006584    0.657719    0.001415    0.000000
   105  O     c     0.387778    0.891045    0.339194    0.000000
   106  O     c     0.605652    0.880050    0.149763    0.000000
   107  O     c     0.880812    0.380065    0.341967    0.000000
   108  O     c     0.098670    0.391055    0.152533    0.000000
   109  O     c     0.605641    0.117062    0.649760    0.000000
   110  O     c     0.387784    0.106075    0.839197    0.000000
   111  O     c     0.098677    0.606087    0.652533    0.000000
   112  O     c     0.880799    0.617086    0.841965    0.000000
   113  O     c     0.473256    0.772380    0.326818    0.000000
   114  O     c     0.504678    0.774766    0.161653    0.000000
   115  O     c     0.981761    0.274772    0.330052    0.000000
   116  O     c     0.013211    0.272375    0.164911    0.000000
   117  O     c     0.504695    0.222358    0.661676    0.000000
   118  O     c     0.473244    0.224753    0.826817    0.000000
   119  O     c     0.013198    0.724750    0.664908    0.000000
   120  O     c     0.981784    0.722359    0.830078    0.000000
   121  O     c     0.775595    0.758511    0.614898    0.000000
   122  O     c     0.215585    0.763584    0.880164    0.000000
   123  O     c     0.270879    0.263578    0.611567    0.000000
   124  O     c     0.710860    0.258520    0.876833    0.000000
   125  O     c     0.215575    0.233550    0.380163    0.000000
   126  O     c     0.775595    0.238612    0.114896    0.000000
   127  O     c     0.710858    0.738616    0.376833    0.000000
   128  O     c     0.270868    0.733544    0.111565    0.000000
   129  O     c     0.628087    0.755803    0.625019    0.000000
   130  O     c     0.362002    0.750282    0.868275    0.000000
   131  O     c     0.124461    0.250282    0.623457    0.000000
   132  O     c     0.858369    0.255797    0.866713    0.000000
   133  O     c     0.361992    0.246846    0.368273    0.000000
   134  O     c     0.628088    0.241330    0.125021    0.000000
   135  O     c     0.858365    0.741325    0.366711    0.000000
   136  O     c     0.124452    0.746848    0.123455    0.000000
   137  O     c     0.731643    0.646418    0.699028    0.000000
   138  O     c     0.247575    0.649962    0.787672    0.000000
   139  O     c     0.238886    0.149963    0.704065    0.000000
   140  O     c     0.754795    0.146426    0.792687    0.000000
   141  O     c     0.247567    0.347166    0.287666    0.000000
   142  O     c     0.731657    0.350705    0.199041    0.000000
   143  O     c     0.754808    0.850709    0.292702    0.000000
   144  O     c     0.238880    0.847166    0.204058    0.000000
   145  O     c     0.659880    0.665991    0.499693    0.000000
   146  O     c     0.323004    0.662228    0.988874    0.000000
   147  O     c     0.163457    0.162223    0.502860    0.000000
   148  O     c     0.826562    0.165985    0.992025    0.000000
   149  O     c     0.322995    0.334906    0.488870    0.000000
   150  O     c     0.659889    0.331142    0.999703    0.000000
   151  O     c     0.826572    0.831136    0.492038    0.000000
   152  O     c     0.163450    0.834900    0.002856    0.000000
   153  O     c     0.784291    0.909350    0.618925    0.000000
   154  O     c     0.202945    0.913751    0.874456    0.000000
   155  O     c     0.283509    0.413745    0.617291    0.000000
   156  O     c     0.702160    0.409357    0.872810    0.000000
   157  O     c     0.202944    0.083383    0.374441    0.000000
   158  O     c     0.784293    0.087774    0.118923    0.000000
   159  O     c     0.702163    0.587778    0.372807    0.000000
   160  O     c     0.283509    0.583377    0.117273    0.000000
   161  O     c     0.916870    0.828385    0.690395    0.000000
   162  O     c     0.071916    0.830650    0.804626    0.000000
   163  O     c     0.414545    0.330650    0.687093    0.000000
   164  O     c     0.569581    0.328390    0.801353    0.000000
   165  O     c     0.071909    0.166478    0.304636    0.000000
   166  O     c     0.916873    0.168740    0.190376    0.000000
   167  O     c     0.569583    0.668740    0.301338    0.000000
   168  O     c     0.414538    0.666479    0.187102    0.000000
   169  O     c     0.637297    0.905333    0.627606    0.000000
   170  O     c     0.344061    0.898265    0.853033    0.000000
   171  O     c     0.142380    0.398268    0.638686    0.000000
   172  O     c     0.849149    0.405327    0.864114    0.000000
   173  O     c     0.344071    0.098860    0.353043    0.000000
   174  O     c     0.637301    0.091799    0.127614    0.000000
   175  O     c     0.849156    0.591796    0.364123    0.000000
   176  O     c     0.142393    0.598864    0.138694    0.000000
   177  O     c     0.542587    0.836785    0.698410    0.000000
   178  O     c     0.448544    0.831768    0.795406    0.000000
   179  O     c     0.037903    0.331761    0.696313    0.000000
   180  O     c     0.943869    0.336780    0.793321    0.000000
   181  O     c     0.448548    0.165366    0.295415    0.000000
   182  O     c     0.542585    0.160349    0.198410    0.000000
   183  O     c     0.943865    0.660344    0.293318    0.000000
   184  O     c     0.037911    0.665361    0.196325    0.000000
   185  O     c     0.730133    0.024571    0.687311    0.000000
   186  O     c     0.258454    0.021130    0.794731    0.000000
   187  O     c     0.227998    0.521125    0.697010    0.000000
   188  O     c     0.756323    0.524572    0.804420    0.000000
   189  O     c     0.258454    0.976002    0.294723    0.000000
   190  O     c     0.730133    0.972557    0.187312    0.000000
   191  O     c     0.756322    0.472557    0.304422    0.000000
   192  O     c     0.228000    0.476000    0.197000    0.000000
   193  O     s     0.543034    0.906949    0.365572    0.000000
   194  O     s     0.454698    0.916102    0.130379    0.000000
   195  O     s     0.031769    0.416098    0.361360    0.000000
   196  O     s     0.943414    0.406938    0.126160    0.000000
   197  O     s     0.454684    0.081033    0.630372    0.000000
   198  O     s     0.543041    0.090190    0.865573    0.000000
   199  O     s     0.943423    0.590181    0.626160    0.000000
   200  O     s     0.031750    0.581020    0.861353    0.000000
   201  O     s     0.658953    0.986075    0.492682    0.000000
   202  O     s     0.335130    0.985615    0.991829    0.000000
   203  O     s     0.151335    0.485617    0.499907    0.000000
   204  O     s     0.827508    0.486075    0.999047    0.000000
   205  O     s     0.335119    0.011513    0.491824    0.000000
   206  O     s     0.658948    0.011053    0.992684    0.000000
   207  O     s     0.827503    0.511055    0.499050    0.000000
   208  O     s     0.151325    0.511512    0.999901    0.000000
   209  O     s     0.550623    0.049925    0.328249    0.000000
   210  O     s     0.428008    0.055667    0.160194    0.000000
   211  O     s     0.058448    0.555666    0.331547    0.000000
   212  O     s     0.935840    0.549916    0.163487    0.000000
   213  O     s     0.428007    0.941464    0.660185    0.000000
   214  O     s     0.550615    0.947212    0.828244    0.000000
   215  O     s     0.935832    0.447205    0.663483    0.000000
   216  O     s     0.058449    0.441459    0.831535    0.000000
   217  O     s     0.659186    0.955802    0.317410    0.000000
   218  O     s     0.326021    0.951258    0.161643    0.000000
   219  O     s     0.160437    0.451265    0.330086    0.000000
   220  O     s     0.827262    0.455805    0.174316    0.000000
   221  O     s     0.326017    0.045864    0.661645    0.000000
   222  O     s     0.659192    0.041325    0.817415    0.000000
   223  O     s     0.827269    0.541329    0.674322    0.000000
   224  O     s     0.160428    0.545875    0.830086    0.000000
   225  O     s     0.508862    0.838474    0.499456    0.000000
   226  O     s     0.475378    0.839916    0.991388    0.000000
   227  O     s     0.011075    0.339902    0.500333    0.000000
   228  O     s     0.977590    0.338475    0.992272    0.000000
   229  O     s     0.475377    0.157225    0.491395    0.000000
   230  O     s     0.508863    0.158657    0.999458    0.000000
   231  O     s     0.977591    0.658655    0.492272    0.000000
   232  O     s     0.011074    0.657214    0.000342    0.000000
   233  O     s     0.388601    0.889421    0.333871    0.000000
   234  O     s     0.603875    0.880880    0.155068    0.000000
   235  O     s     0.882588    0.380892    0.336662    0.000000
   236  O     s     0.097848    0.389428    0.157857    0.000000
   237  O     s     0.603866    0.116235    0.655065    0.000000
   238  O     s     0.388606    0.107701    0.833874    0.000000
   239  O     s     0.097854    0.607711    0.657857    0.000000
   240  O     s     0.882576    0.616254    0.836661    0.000000
   241  O     s     0.475685    0.775863    0.323772    0.000000
   242  O     s     0.503844    0.777858    0.165118    0.000000
   243  O     s     0.982599    0.277863    0.326592    0.000000
   244  O     s     0.010778    0.275859    0.167956    0.000000
   245  O     s     0.503857    0.219267    0.665137    0.000000
   246  O     s     0.475676    0.221269    0.823773    0.000000
   247  O     s     0.010768    0.721267    0.667955    0.000000
   248  O     s     0.982616    0.719267    0.826613    0.000000
   249  O     s     0.772485    0.760944    0.612895    0.000000
   250  O     s     0.217900    0.765258    0.881643    0.000000
   251  O     s     0.268562    0.265253    0.610089    0.000000
   252  O     s     0.713970    0.260952    0.878836    0.000000
   253  O     s     0.217891    0.231875    0.381641    0.000000
   254  O     s     0.772485    0.236179    0.112894    0.000000
   255  O     s     0.713968    0.736183    0.378836    0.000000
   256  O     s     0.268553    0.731870    0.110086    0.000000
   257  O     s     0.630465    0.759133    0.621645    0.000000
   258  O     s     0.358812    0.754359    0.870939    0.000000
   259  O     s     0.127649    0.254359    0.620792    0.000000
   260  O     s     0.855989    0.259128    0.870085    0.000000
   261  O     s     0.358804    0.242770    0.370938    0.000000
   262  O     s     0.630467    0.238000    0.121648    0.000000
   263  O     s     0.855986    0.737996    0.370084    0.000000
   264  O     s     0.127642    0.742770    0.120790    0.000000
   265  O     s     0.735581    0.646080    0.694949    0.000000
   266  O     s     0.244796    0.648586    0.793310    0.000000
   267  O     s     0.241664    0.148587    0.698426    0.000000
   268  O     s     0.750859    0.146086    0.796768    0.000000
   269  O     s     0.244789    0.348542    0.293305    0.000000
   270  O     s     0.735593    0.351045    0.194960    0.000000
   271  O     s     0.750870    0.851047    0.296781    0.000000
   272  O     s     0.241659    0.848542    0.198420    0.000000
   273  O     s     0.664331    0.670458    0.499472    0.000000
   274  O     s     0.318976    0.667085    0.989409    0.000000
   275  O     s     0.167484    0.167081    0.502324    0.000000
   276  O     s     0.822113    0.170453    0.992248    0.000000
   277  O     s     0.318969    0.330048    0.489406    0.000000
   278  O     s     0.664339    0.326675    0.999481    0.000000
   279  O     s     0.822122    0.826669    0.492259    0.000000
   280  O     s     0.167478    0.830043    0.002321    0.000000
   281  O     s     0.779658    0.905888    0.615645    0.000000
   282  O     s     0.207886    0.909604    0.876913    0.000000
   283  O     s     0.278569    0.409598    0.614831    0.000000
   284  O     s     0.706794    0.405894    0.876089    0.000000
   285  O     s     0.207884    0.087530    0.376901    0.000000
   286  O     s     0.779660    0.091236    0.115643    0.000000
   287  O     s     0.706796    0.591240    0.376087    0.000000
   288  O     s     0.278569    0.587525    0.114817    0.000000
   289  O     s     0.915238    0.822701    0.686877    0.000000
   290  O     s     0.073801    0.824848    0.807993    0.000000
   291  O     s     0.412658    0.324848    0.683730    0.000000
   292  O     s     0.571214    0.322705    0.804868    0.000000
   293  O     s     0.073796    0.172280    0.308000    0.000000
   294  O     s     0.915240    0.174424    0.186861    0.000000
   295  O     s     0.571215    0.674425    0.304855    0.000000
   296  O     s     0.412653    0.672281    0.183736    0.000000
   297  O     s     0.637958    0.903007    0.623329    0.000000
   298  O     s     0.344753    0.896999    0.858879    0.000000
   299  O     s     0.141690    0.397001    0.632842    0.000000
   300  O     s     0.848490    0.403002    0.868393    0.000000
   301  O     s     0.344761    0.100127    0.358887    0.000000
   302  O     s     0.637961    0.094125    0.123336    0.000000
   303  O     s     0.848495    0.594122    0.368400    0.000000
   304  O     s     0.141700    0.600130    0.132849    0.000000
   305  O     s     0.540942    0.842319    0.693897    0.000000
   306  O     s     0.448953    0.837939    0.799134    0.000000
   307  O     s     0.037495    0.337932    0.692586    0.000000
   308  O     s     0.945512    0.342314    0.797832    0.000000
   309  O     s     0.448957    0.159195    0.299142    0.000000
   310  O     s     0.540941    0.154815    0.193898    0.000000
   311  O     s     0.945510    0.654810    0.297832    0.000000
   312  O     s     0.037501    0.659190    0.192597    0.000000
   313  O     s     0.722364    0.023337    0.683794    0.000000
   314  O     s     0.266318    0.020415    0.799047    0.000000
   315  O     s     0.220134    0.520412    0.692693    0.000000
   316  O     s     0.764092    0.523338    0.807936    0.000000
   317  O     s     0.266318    0.976715    0.299039    0.000000
   318  O     s     0.722364    0.973791    0.183796    0.000000
   319  O     s     0.764091    0.473791    0.307938    0.000000
   320  O     s     0.220136    0.476714    0.192684    0.000000
--------------------------------------------------------------------------------

  Final Cartesian lattice vectors (Angstroms) :

       17.604899    0.000034   -0.001167
        0.000016   17.641900   -0.000135
       -5.790605   -0.000005   13.106591


  Final cell parameters and derivatives :

--------------------------------------------------------------------------------
       a           17.604899 Angstrom     dE/de1(xx)     0.001873 eV/strain
       b           17.641900 Angstrom     dE/de2(yy)     0.001084 eV/strain
       c           14.328776 Angstrom     dE/de3(zz)    -0.000539 eV/strain
       alpha       90.000441 Degrees      dE/de4(yz)    -0.002048 eV/strain
       beta       113.840055 Degrees      dE/de5(xz)     0.000538 eV/strain
       gamma       89.999840 Degrees      dE/de6(xy)     0.003941 eV/strain
--------------------------------------------------------------------------------

  Primitive cell volume =          4070.576338 Angs**3

  Density of cell =      1.568853 g/cm**3

  Non-primitive cell volume =          4070.576338 Angs**3


  Final internal derivatives :

--------------------------------------------------------------------------------
   No.  Atomic          a             b             c           Radius
        Label          (eV)          (eV)          (eV)        (eV/Angs)
--------------------------------------------------------------------------------
      1 Si    c       0.000406      0.000054      0.000312      0.000000
      2 Si    c      -0.000538     -0.000138     -0.000947      0.000000
      3 Si    c      -0.000446      0.001851      0.000166      0.000000
      4 Si    c       0.000112     -0.000096     -0.000267      0.000000
      5 Si    c      -0.000202     -0.002096      0.000329      0.000000
      6 Si    c      -0.000155      0.000119     -0.000317      0.000000
      7 Si    c      -0.000113     -0.001160     -0.001223      0.000000
      8 Si    c       0.000422      0.000183     -0.000162      0.000000
      9 Si    c      -0.000401      0.000501      0.000954      0.000000
     10 Si    c      -0.003289      0.003760     -0.003780      0.000000
     11 Si    c      -0.003153     -0.003638     -0.002407      0.000000
     12 Si    c      -0.001075      0.000284     -0.001156      0.000000
     13 Si    c       0.003008      0.003081      0.002008      0.000000
     14 Si    c       0.001240     -0.000240      0.000834      0.000000
     15 Si    c       0.001498      0.000004     -0.000906      0.000000
     16 Si    c       0.003125     -0.001564      0.001167      0.000000
     17 Si    c      -0.001619      0.001041      0.000126      0.000000
     18 Si    c      -0.000122     -0.000354      0.000137      0.000000
     19 Si    c      -0.000785      0.001359     -0.000477      0.000000
     20 Si    c      -0.001181     -0.001172      0.000189      0.000000
     21 Si    c       0.000784     -0.001017      0.000360      0.000000
     22 Si    c       0.001361      0.001740     -0.000198      0.000000
     23 Si    c       0.001731     -0.001735      0.000105      0.000000
     24 Si    c       0.000119      0.000330     -0.000384      0.000000
     25 Si    c      -0.000649      0.000596      0.000545      0.000000
     26 Si    c      -0.000358     -0.000307      0.000315      0.000000
     27 Si    c      -0.000621      0.000339     -0.000273      0.000000
     28 Si    c      -0.000948     -0.001333      0.000231      0.000000
     29 Si    c       0.000704     -0.000595      0.000156      0.000000
     30 Si    c       0.001094      0.001223     -0.000054      0.000000
     31 Si    c       0.001065     -0.000822     -0.000164      0.000000
     32 Si    c       0.000649      0.000414     -0.000636      0.000000
     33 Si    c       0.000712      0.000234     -0.001166      0.000000
     34 Si    c      -0.000352     -0.000555      0.001004      0.000000
     35 Si    c       0.000378      0.000173      0.000272      0.000000
     36 Si    c       0.000919     -0.000471     -0.000222      0.000000
     37 Si    c      -0.000355      0.000191     -0.000290      0.000000
     38 Si    c      -0.001338      0.000600      0.001064      0.000000
     39 Si    c      -0.001474      0.000289      0.002197      0.000000
     40 Si    c       0.000232      0.000092     -0.000173      0.000000
     41 Si    c      -0.000319     -0.000691     -0.000696      0.000000
     42 Si    c       0.000539      0.001381     -0.000445      0.000000
     43 Si    c       0.000584      0.000690      0.000807      0.000000
     44 Si    c       0.000495      0.001809     -0.000755      0.000000
     45 Si    c      -0.000734     -0.000619     -0.000624      0.000000
     46 Si    c      -0.000434     -0.002789      0.000889      0.000000
     47 Si    c       0.000250      0.001931      0.000656      0.000000
     48 Si    c      -0.000754     -0.001737      0.000842      0.000000
     49 Si    c       0.001140     -0.000677     -0.001822      0.000000
     50 Si    c       0.000552      0.000308     -0.000830      0.000000
     51 Si    c       0.000348     -0.000513      0.000426      0.000000
     52 Si    c      -0.000509      0.000376      0.001296      0.000000
     53 Si    c       0.000264      0.003645      0.002401      0.000000
     54 Si    c      -0.000575      0.001432      0.001055      0.000000
     55 Si    c       0.000447      0.001416      0.001606      0.000000
     56 Si    c       0.000101     -0.002066      0.002613      0.000000
     57 Si    c      -0.000498     -0.002074     -0.001926      0.000000
     58 Si    c      -0.000229      0.001815     -0.001948      0.000000
     59 Si    c      -0.000699     -0.002238     -0.001140      0.000000
     60 Si    c      -0.000362     -0.000859     -0.000710      0.000000
     61 Si    c      -0.004957     -0.001426      0.003177      0.000000
     62 Si    c      -0.003928      0.000560      0.003359      0.000000
     63 Si    c       0.002779     -0.000111     -0.002874      0.000000
     64 Si    c       0.002555      0.000273     -0.002436      0.000000
     65 O     c       0.000985      0.001073     -0.000734      0.000000
     66 O     c      -0.000728      0.000778      0.002275      0.000000
     67 O     c      -0.001063     -0.000969      0.001499      0.000000
     68 O     c      -0.000826     -0.000656      0.001000      0.000000
     69 O     c       0.000391      0.000421     -0.001095      0.000000
     70 O     c       0.000968      0.000755     -0.001000      0.000000
     71 O     c      -0.000390     -0.001297     -0.000035      0.000000
     72 O     c      -0.000749      0.000500     -0.000079      0.000000
     73 O     c      -0.001139     -0.000827     -0.001739      0.000000
     74 O     c      -0.000371     -0.000974      0.000294      0.000000
     75 O     c       0.000153     -0.000802     -0.000950      0.000000
     76 O     c      -0.000394      0.001449     -0.000360      0.000000
     77 O     c      -0.000138      0.000756      0.001194      0.000000
     78 O     c       0.000553     -0.001609      0.000833      0.000000
     79 O     c       0.001470      0.001162      0.001988      0.000000
     80 O     c       0.000463      0.000802      0.000678      0.000000
     81 O     c       0.000342     -0.000805     -0.000426      0.000000
     82 O     c       0.000763      0.001958      0.000238      0.000000
     83 O     c       0.000985     -0.003405      0.000415      0.000000
     84 O     c       0.001097      0.001775     -0.000356      0.000000
     85 O     c      -0.001168      0.003761     -0.000305      0.000000
     86 O     c      -0.001045     -0.001570      0.000357      0.000000
     87 O     c      -0.000754      0.001526      0.000421      0.000000
     88 O     c      -0.000016     -0.000477     -0.000162      0.000000
     89 O     c      -0.001402     -0.000303      0.000340      0.000000
     90 O     c      -0.000462     -0.000063     -0.000185      0.000000
     91 O     c      -0.000699      0.000310      0.000248      0.000000
     92 O     c      -0.002123      0.000015      0.000733      0.000000
     93 O     c       0.001173     -0.000180     -0.000203      0.000000
     94 O     c       0.002147      0.000116     -0.000855      0.000000
     95 O     c       0.001704     -0.000079     -0.000692      0.000000
     96 O     c       0.000304      0.000101     -0.000205      0.000000
     97 O     c       0.001363      0.000306     -0.000697      0.000000
     98 O     c       0.000155      0.000032      0.001808      0.000000
     99 O     c       0.001098      0.000129     -0.000299      0.000000
    100 O     c       0.000597      0.000190     -0.000917      0.000000
    101 O     c      -0.001047      0.000091      0.000252      0.000000
    102 O     c      -0.001320     -0.000084      0.000592      0.000000
    103 O     c      -0.002324     -0.000477     -0.000111      0.000000
    104 O     c      -0.000418     -0.000357     -0.001330      0.000000
    105 O     c       0.002183     -0.000646      0.000181      0.000000
    106 O     c       0.005751      0.001000     -0.002999      0.000000
    107 O     c       0.005334     -0.001128     -0.002488      0.000000
    108 O     c       0.001469      0.001879     -0.002015      0.000000
    109 O     c      -0.004827      0.000956      0.001898      0.000000
    110 O     c      -0.001198     -0.001716      0.002153      0.000000
    111 O     c      -0.001858      0.001019      0.000614      0.000000
    112 O     c      -0.003715     -0.000289      0.001655      0.000000
    113 O     c       0.000059      0.000702      0.000778      0.000000
    114 O     c       0.000303     -0.006559     -0.000229      0.000000
    115 O     c      -0.000141      0.006807      0.000399      0.000000
    116 O     c       0.000332     -0.004179      0.000722      0.000000
    117 O     c       0.000272     -0.005461     -0.000372      0.000000
    118 O     c      -0.000208      0.004160     -0.000771      0.000000
    119 O     c      -0.000387     -0.001235     -0.000265      0.000000
    120 O     c       0.000301      0.002314      0.000512      0.000000
    121 O     c      -0.000440      0.000287      0.000118      0.000000
    122 O     c       0.000173      0.000254     -0.000057      0.000000
    123 O     c       0.000473      0.001247     -0.000150      0.000000
    124 O     c      -0.000566      0.000763      0.000257      0.000000
    125 O     c      -0.000353     -0.001073      0.000109      0.000000
    126 O     c       0.000973     -0.000677     -0.000368      0.000000
    127 O     c       0.001114     -0.000045     -0.000315      0.000000
    128 O     c      -0.000130     -0.000459     -0.000028      0.000000
    129 O     c      -0.000290      0.001293     -0.000312      0.000000
    130 O     c      -0.000006      0.000065     -0.000072      0.000000
    131 O     c       0.000649      0.000913     -0.000206      0.000000
    132 O     c       0.001586      0.000041     -0.000505      0.000000
    133 O     c      -0.000382     -0.001049      0.000131      0.000000
    134 O     c      -0.002172     -0.000150      0.000878      0.000000
    135 O     c       0.000094     -0.002239      0.000549      0.000000
    136 O     c       0.000352      0.000515     -0.000009      0.000000
    137 O     c      -0.001409      0.001106      0.000325      0.000000
    138 O     c       0.000074     -0.000189      0.000164      0.000000
    139 O     c      -0.001584      0.001263      0.000946      0.000000
    140 O     c      -0.000798     -0.000515      0.000228      0.000000
    141 O     c       0.001701     -0.001543     -0.000749      0.000000
    142 O     c       0.000963      0.000536     -0.000370      0.000000
    143 O     c       0.002294     -0.001865     -0.000343      0.000000
    144 O     c      -0.000645     -0.000478     -0.000146      0.000000
    145 O     c      -0.000526     -0.000057      0.001015      0.000000
    146 O     c      -0.000069      0.000077     -0.000499      0.000000
    147 O     c       0.000627     -0.000581     -0.001631      0.000000
    148 O     c      -0.000081      0.000223     -0.000078      0.000000
    149 O     c      -0.000607      0.000593      0.001728      0.000000
    150 O     c       0.000198     -0.000288     -0.000545      0.000000
    151 O     c       0.000712      0.000209     -0.001855      0.000000
    152 O     c       0.000228     -0.000136      0.000286      0.000000
    153 O     c      -0.000826      0.001102      0.000052      0.000000
    154 O     c       0.000145      0.000114     -0.000082      0.000000
    155 O     c      -0.001735     -0.000617      0.000305      0.000000
    156 O     c      -0.002797     -0.000937      0.000829      0.000000
    157 O     c       0.001661      0.000695     -0.000194      0.000000
    158 O     c       0.003444      0.001096     -0.000940      0.000000
    159 O     c       0.002166     -0.001362     -0.000325      0.000000
    160 O     c      -0.000032     -0.000561      0.000132      0.000000
    161 O     c      -0.000864      0.001368      0.000785      0.000000
    162 O     c       0.000791      0.000514      0.000252      0.000000
    163 O     c       0.000275     -0.000958     -0.000295      0.000000
    164 O     c      -0.000155     -0.001408      0.000031      0.000000
    165 O     c       0.000408      0.000445      0.000474      0.000000
    166 O     c       0.000576      0.001679      0.000084      0.000000
    167 O     c       0.002669     -0.003007     -0.000496      0.000000
    168 O     c       0.000081     -0.000206      0.000121      0.000000
    169 O     c      -0.000591     -0.001403     -0.000110      0.000000
    170 O     c      -0.000821      0.000592      0.000397      0.000000
    171 O     c      -0.000394     -0.000657     -0.000068      0.000000
    172 O     c       0.000867     -0.000419     -0.000756      0.000000
    173 O     c       0.000650      0.000814     -0.000153      0.000000
    174 O     c      -0.001398      0.000118      0.001152      0.000000
    175 O     c      -0.000207      0.001407      0.000651      0.000000
    176 O     c       0.001224     -0.000677     -0.000680      0.000000
    177 O     c      -0.001469      0.000995      0.001233      0.000000
    178 O     c       0.000651     -0.000127     -0.000539      0.000000
    179 O     c      -0.000272      0.000497      0.000054      0.000000
    180 O     c      -0.000142     -0.000031      0.000064      0.000000
    181 O     c      -0.000399      0.000123      0.000561      0.000000
    182 O     c       0.000436      0.000094     -0.000385      0.000000
    183 O     c       0.001003     -0.000597     -0.000963      0.000000
    184 O     c      -0.000494      0.000114      0.000391      0.000000
    185 O     c      -0.000719      0.001318      0.001004      0.000000
    186 O     c      -0.000764     -0.002088      0.002515      0.000000
    187 O     c      -0.000472     -0.001157     -0.001301      0.000000
    188 O     c      -0.000818     -0.000874      0.000939      0.000000
    189 O     c       0.000167      0.000448      0.001050      0.000000
    190 O     c       0.001549      0.001586     -0.001537      0.000000
    191 O     c       0.001431     -0.002280     -0.001697      0.000000
    192 O     c       0.000000      0.000000      0.000000      0.000000
    193 O     s       0.000383     -0.000078      0.001133      0.000000
    194 O     s      -0.002131      0.001752     -0.002416      0.000000
    195 O     s      -0.001720     -0.001135     -0.001117      0.000000
    196 O     s      -0.000276      0.000700     -0.000492      0.000000
    197 O     s       0.001160      0.000569      0.001037      0.000000
    198 O     s      -0.000019     -0.001001      0.000374      0.000000
    199 O     s      -0.001230      0.000542      0.000212      0.000000
    200 O     s       0.000249     -0.001221      0.000878      0.000000
    201 O     s       0.000552      0.000093     -0.000094      0.000000
    202 O     s       0.000805     -0.000758     -0.001270      0.000000
    203 O     s       0.000452     -0.000274     -0.000118      0.000000
    204 O     s       0.000385      0.000348     -0.000117      0.000000
    205 O     s      -0.000483      0.000338      0.000574      0.000000
    206 O     s      -0.000333     -0.000755     -0.000243      0.000000
    207 O     s      -0.000696      0.000598      0.000219      0.000000
    208 O     s      -0.000910      0.000518      0.001026      0.000000
    209 O     s       0.000939      0.000457      0.000258      0.000000
    210 O     s      -0.000218      0.000816     -0.000218      0.000000
    211 O     s       0.000032      0.000445     -0.000104      0.000000
    212 O     s       0.001229      0.000436      0.000132      0.000000
    213 O     s       0.000151      0.000011      0.000050      0.000000
    214 O     s      -0.001311     -0.000481     -0.000268      0.000000
    215 O     s      -0.001313      0.000078     -0.000045      0.000000
    216 O     s      -0.000604     -0.000629      0.000227      0.000000
    217 O     s      -0.000581      0.001725      0.001525      0.000000
    218 O     s      -0.001044      0.000542      0.000001      0.000000
    219 O     s      -0.001526      0.001392      0.001721      0.000000
    220 O     s      -0.001122     -0.000664      0.001334      0.000000
    221 O     s       0.001679     -0.001505     -0.001709      0.000000
    222 O     s       0.001103      0.000447     -0.001185      0.000000
    223 O     s       0.001354     -0.000854     -0.001478      0.000000
    224 O     s       0.000795     -0.000010      0.000081      0.000000
    225 O     s       0.000070     -0.000189      0.000398      0.000000
    226 O     s      -0.000741      0.001323     -0.002455      0.000000
    227 O     s      -0.000158     -0.001396     -0.001985      0.000000
    228 O     s      -0.000205      0.000374     -0.000883      0.000000
    229 O     s       0.000069      0.000792      0.001553      0.000000
    230 O     s       0.000121      0.000028      0.000904      0.000000
    231 O     s      -0.000330     -0.000154      0.000009      0.000000
    232 O     s       0.000626     -0.000427      0.000915      0.000000
    233 O     s      -0.000821     -0.000932      0.000497      0.000000
    234 O     s       0.001941      0.000954     -0.001530      0.000000
    235 O     s       0.001401     -0.000840     -0.000434      0.000000
    236 O     s       0.000729      0.000981     -0.000528      0.000000
    237 O     s      -0.001102      0.000599      0.000218      0.000000
    238 O     s      -0.000742     -0.001284      0.000198      0.000000
    239 O     s       0.000610      0.001187     -0.000741      0.000000
    240 O     s       0.000120     -0.000801      0.000157      0.000000
    241 O     s      -0.002340     -0.000097      0.002234      0.000000
    242 O     s       0.000202     -0.002313     -0.000786      0.000000
    243 O     s      -0.000180      0.000982      0.000916      0.000000
    244 O     s      -0.001192     -0.001457      0.000975      0.000000
    245 O     s       0.000216     -0.000693     -0.000743      0.000000
    246 O     s       0.000872      0.001476     -0.000862      0.000000
    247 O     s       0.000607     -0.000379     -0.001419      0.000000
    248 O     s       0.000206      0.000980      0.000296      0.000000
    249 O     s      -0.000356     -0.000622     -0.000079      0.000000
    250 O     s      -0.000287     -0.000190      0.000461      0.000000
    251 O     s       0.000916      0.000052     -0.000860      0.000000
    252 O     s      -0.000403      0.000215      0.000034      0.000000
    253 O     s      -0.000919     -0.000036      0.000806      0.000000
    254 O     s       0.000533     -0.000087      0.000071      0.000000
    255 O     s       0.000446      0.000310      0.000197      0.000000
    256 O     s       0.000386      0.000624     -0.000188      0.000000
    257 O     s       0.000239      0.000739     -0.000193      0.000000
    258 O     s      -0.000897     -0.000475      0.000717      0.000000
    259 O     s      -0.000423      0.000562     -0.000062      0.000000
    260 O     s       0.000124     -0.000653      0.000366      0.000000
    261 O     s       0.000340     -0.000499      0.000002      0.000000
    262 O     s      -0.000197      0.001229     -0.000173      0.000000
    263 O     s      -0.000470     -0.001396      0.000441      0.000000
    264 O     s       0.000501      0.000602     -0.000610      0.000000
    265 O     s      -0.000032      0.000458     -0.000668      0.000000
    266 O     s       0.000228      0.000409     -0.000040      0.000000
    267 O     s      -0.000160      0.000957     -0.000416      0.000000
    268 O     s      -0.000101     -0.000697     -0.000265      0.000000
    269 O     s      -0.000070     -0.001146      0.000445      0.000000
    270 O     s       0.000230      0.001230      0.000560      0.000000
    271 O     s       0.000532     -0.001499      0.000818      0.000000
    272 O     s      -0.000600     -0.000990      0.000183      0.000000
    273 O     s       0.000911      0.000480     -0.000153      0.000000
    274 O     s       0.000173      0.000876     -0.000084      0.000000
    275 O     s       0.000029      0.000570     -0.000550      0.000000
    276 O     s       0.000432     -0.000528      0.000101      0.000000
    277 O     s      -0.000231     -0.000560      0.000526      0.000000
    278 O     s      -0.000324      0.000819     -0.000252      0.000000
    279 O     s      -0.000632     -0.000921      0.000001      0.000000
    280 O     s      -0.000269     -0.000693     -0.000099      0.000000
    281 O     s      -0.000365     -0.000560      0.000137      0.000000
    282 O     s       0.000369      0.000110     -0.000334      0.000000
    283 O     s       0.000164      0.000249      0.000630      0.000000
    284 O     s      -0.000720      0.000068      0.000020      0.000000
    285 O     s      -0.000300     -0.000177     -0.000541      0.000000
    286 O     s       0.000882     -0.000291     -0.000052      0.000000
    287 O     s       0.000762      0.000751     -0.000096      0.000000
    288 O     s      -0.000611     -0.000276      0.000427      0.000000
    289 O     s      -0.000060     -0.000309      0.000147      0.000000
    290 O     s       0.000995      0.000202     -0.000296      0.000000
    291 O     s       0.000330      0.000512     -0.000557      0.000000
    292 O     s       0.000078      0.000305     -0.000225      0.000000
    293 O     s      -0.000737     -0.000260      0.000588      0.000000
    294 O     s      -0.000011     -0.000039      0.000355      0.000000
    295 O     s       0.000556     -0.000513      0.000032      0.000000
    296 O     s      -0.002250     -0.000481      0.000393      0.000000
    297 O     s       0.000305     -0.000855     -0.000121      0.000000
    298 O     s      -0.000153      0.001151     -0.000083      0.000000
    299 O     s       0.000173      0.000315     -0.000737      0.000000
    300 O     s       0.000577     -0.000013     -0.000553      0.000000
    301 O     s       0.000161     -0.000047      0.000538      0.000000
    302 O     s      -0.000711     -0.000313      0.000700      0.000000
    303 O     s      -0.000371      0.001569      0.000697      0.000000
    304 O     s       0.000065     -0.001433      0.000109      0.000000
    305 O     s       0.000697     -0.000275     -0.000764      0.000000
    306 O     s       0.000229      0.000142     -0.000458      0.000000
    307 O     s       0.000250     -0.000437     -0.000317      0.000000
    308 O     s       0.000434      0.000225     -0.000399      0.000000
    309 O     s      -0.000430      0.000208      0.000341      0.000000
    310 O     s      -0.000472     -0.000152      0.000556      0.000000
    311 O     s      -0.001045      0.000558      0.001215      0.000000
    312 O     s      -0.000154     -0.000152      0.000378      0.000000
    313 O     s      -0.000008      0.000191     -0.000154      0.000000
    314 O     s      -0.000119     -0.001015     -0.000108      0.000000
    315 O     s       0.001116     -0.000417     -0.000101      0.000000
    316 O     s       0.000437     -0.000140     -0.000696      0.000000
    317 O     s      -0.001720      0.000867      0.000122      0.000000
    318 O     s       0.000118      0.000439      0.000570      0.000000
    319 O     s      -0.000196      0.000309      0.000399      0.000000
    320 O     s      -0.000035      0.001019     -0.000002      0.000000
--------------------------------------------------------------------------------
  Maximum abs         0.005751      0.006807      0.003780      0.000000
--------------------------------------------------------------------------------


  Time to end of optimisation =       3.5835 seconds


  Peak dynamic memory used =       5.98 MB 


  Timing analysis for GULP :

--------------------------------------------------------------------------------
  Task / Subroutine                                          Time (Seconds)
--------------------------------------------------------------------------------
  Calculation of reciprocal space energy and derivatives          0.1887
  Calculation of real space energy and derivatives                1.9860
  Calculation of three-body energy and derivatives                0.3005
  Calculation and manipulation of Hessian matrix                  0.8740
  Calculation of matrix inversion                                 0.1305
  Symmetry generation of equivalent positions                     0.0003
  Global summation overhead                                       0.0870
--------------------------------------------------------------------------------
  Total CPU time                                                  3.5836
--------------------------------------------------------------------------------


  Dump file written as ReferenceDataBase/BEB.grs
  CIF file written as ReferenceDataBase/BEB_opt.cif


  Job Finished at 14:15.07 20th April      2023                               

