********************************************************************************
*                       GENERAL UTILITY LATTICE PROGRAM                        *
*                                 Julian Gale                                  *
*                       Curtin Institute for Computation                       *
*                    School of Molecular and Life Sciences                     *
*                    Curtin University, Western Australia                      *
********************************************************************************
* Version = 6.1.2 * Last modified =   3rd November 2022                        *
********************************************************************************
*  optimise     - perform optimisation run                                     *
*  conv         - constant volume calculation                                  *
*  shell        - only shells and radii to be optimised                        *
*  nosymmetry   - turn off symmetry after initial structure generation         *
********************************************************************************

  Job Started  at 11:43.45 20th February   2024                               

  Number of CPUs =     1


  Total number of configurations input =      1

********************************************************************************
*  Input for Configuration =   1 : ReferenceDataBase/COE-11                    *
********************************************************************************

  Formula = Si66O132                                                    

  Number of irreducible atoms/shells =     330


  Total number atoms/shells =     330

  Dimensionality = 3               :  Bulk   



  Cartesian lattice vectors (Angstroms) :

       17.414600    0.000000    0.000000
        0.000000   17.390600    0.000000
       -5.638069    0.000000   13.299364

  Cell parameters (Angstroms/Degrees):

  a =      17.4146    alpha =  90.0000
  b =      17.3906    beta  = 112.9738
  c =      14.4451    gamma =  90.0000

  Initial cell volume =        4027.717008 Angs**3

  Temperature of configuration =   0.00     K 

  Pressure of configuration =         0.000 GPa 

  Fractional coordinates of asymmetric unit :

--------------------------------------------------------------------------------
   No.  Atomic       x           y          z         Charge      Occupancy
        Label      (Frac)      (Frac)     (Frac)        (e)         (Frac)  
--------------------------------------------------------------------------------
      1 Si    c    0.013541    0.888923    0.515657     4.00000    1.000000    
      2 Si    c    0.820211    0.698239    0.526295     4.00000    1.000000    
      3 Si    c    0.013332    0.504845    0.515412     4.00000    1.000000    
      4 Si    c    0.689484    0.572510    0.513654     4.00000    1.000000    
      5 Si    c    0.985546    0.617170    0.660887     4.00000    1.000000    
      6 Si    c    0.641643    0.879502    0.516521     4.00000    1.000000    
      7 Si    c    0.802304    0.817203    0.679996     4.00000    1.000000    
      8 Si    c    0.901806    0.552486    0.797101     4.00000    1.000000    
      9 Si    c    0.514403    0.753212    0.508346     4.00000    1.000000    
     10 Si    c    0.797226    0.438350    0.640367     4.00000    1.000000    
     11 Si    c    0.850747    0.808642    0.382011     4.00000    1.000000    
     12 Si    c    0.780338    0.683044    0.807617     4.00000    1.000000    
     13 Si    c    0.609923    0.630675    0.662817     4.00000    1.000000    
     14 Si    c    0.095284    0.753675    0.786251     4.00000    1.000000    
     15 Si    c    0.975571    0.885600    0.805109     4.00000    1.000000    
     16 Si    c    0.990781    0.002290    0.666076     4.00000    1.000000    
     17 Si    c    0.890145    0.710424    0.023580     4.00000    1.000000    
     18 Si    c    0.009058    0.585280    0.011484     4.00000    1.000000    
     19 Si    c    0.014050    0.834813    0.016641     4.00000    1.000000    
     20 O     c    0.620533    0.549655    0.405166     0.86902    1.000000    
     21 O     c    0.030413    0.559582    0.611024     0.86902    1.000000    
     22 O     c    0.815200    0.736696    0.422856     0.86902    1.000000    
     23 O     c    0.475386    0.697200    0.412038     0.86902    1.000000    
     24 O     c    0.721522    0.868400    0.619908     0.86902    1.000000    
     25 O     c    0.951782    0.534823    0.915667     0.86902    1.000000    
     26 O     c    0.878181    0.873583    0.738328     0.86902    1.000000    
     27 O     c    0.148599    0.722858    0.899036     0.86902    1.000000    
     28 O     c    0.807103    0.690764    0.927033     0.86902    1.000000    
     29 O     c    0.993079    0.892292    0.922809     0.86902    1.000000    
     30 O     c    0.668127    0.890014    0.422296     0.86902    1.000000    
     31 O     c    0.841188    0.625690    0.780419     0.86902    1.000000    
     32 O     c    0.849711    0.476672    0.747941     0.86902    1.000000    
     33 O     c    0.987845    0.927032    0.600088     0.86902    1.000000    
     34 O     c    0.852665    0.787769    0.274280     0.86902    1.000000    
     35 O     c    0.593956    0.953881    0.531440     0.86902    1.000000    
     36 O     c    0.932245    0.783866    0.995367     0.86902    1.000000    
     37 O     c    0.026761    0.813971    0.788391     0.86902    1.000000    
     38 O     c    0.583326    0.804488    0.489427     0.86902    1.000000    
     39 O     c    0.825229    0.766105    0.602539     0.86902    1.000000    
     40 O     c    0.783822    0.764943    0.759809     0.86902    1.000000    
     41 O     c    0.965917    0.571908    0.745718     0.86902    1.000000    
     42 O     c    0.953851    0.639226    0.051670     0.86902    1.000000    
     43 O     c    0.900951    0.645065    0.572223     0.86902    1.000000    
     44 O     c    0.553174    0.574833    0.696879     0.86902    1.000000    
     45 O     c    0.736833    0.648569    0.502109     0.86902    1.000000    
     46 O     c    0.047659    0.686641    0.709871     0.86902    1.000000    
     47 O     c    0.641582    0.587895    0.586228     0.86902    1.000000    
     48 O     c    0.686728    0.652352    0.764381     0.86902    1.000000    
     49 O     c    0.944842    0.825591    0.458462     0.86902    1.000000    
     50 O     c    0.002146    0.967574    0.774201     0.86902    1.000000    
     51 O     c    0.754032    0.503297    0.557306     0.86902    1.000000    
     52 O     c    0.795494    0.884399    0.366930     0.86902    1.000000    
     53 Si    c    0.197800    0.690222    0.501942     4.00000    1.000000    
     54 Si    c    0.326287    0.563790    0.509612     4.00000    1.000000    
     55 Si    c    0.029683    0.615498    0.358327     4.00000    1.000000    
     56 Si    c    0.384777    0.878440    0.499932     4.00000    1.000000    
     57 Si    c    0.225161    0.807528    0.351655     4.00000    1.000000    
     58 Si    c    0.117430    0.548667    0.224030     4.00000    1.000000    
     59 Si    c    0.218842    0.428522    0.374853     4.00000    1.000000    
     60 Si    c    0.178867    0.806151    0.647437     4.00000    1.000000    
     61 Si    c    0.242526    0.677713    0.214807     4.00000    1.000000    
     62 Si    c    0.410516    0.627670    0.367208     4.00000    1.000000    
     63 Si    c    0.917992    0.747802    0.235793     4.00000    1.000000    
     64 Si    c    0.048619    0.873574    0.232866     4.00000    1.000000    
     65 Si    c    0.036832    0.005201    0.361436     4.00000    1.000000    
     66 Si    c    0.131357    0.707577    0.999265     4.00000    1.000000    
     67 O     c    0.394782    0.538427    0.616962     0.86902    1.000000    
     68 O     c    0.996638    0.552423    0.414477     0.86902    1.000000    
     69 O     c    0.201274    0.727198    0.605521     0.86902    1.000000    
     70 O     c    0.557697    0.705727    0.610803     0.86902    1.000000    
     71 O     c    0.302800    0.865262    0.399013     0.86902    1.000000    
     72 O     c    0.064471    0.532671    0.105672     0.86902    1.000000    
     73 O     c    0.142914    0.858723    0.308266     0.86902    1.000000    
     74 O     c    0.866782    0.726427    0.119021     0.86902    1.000000    
     75 O     c    0.215746    0.686791    0.094853     0.86902    1.000000    
     76 O     c    0.038304    0.883746    0.118229     0.86902    1.000000    
     77 O     c    0.363859    0.890726    0.597628     0.86902    1.000000    
     78 O     c    0.184219    0.616565    0.240212     0.86902    1.000000    
     79 O     c    0.162656    0.469797    0.271075     0.86902    1.000000    
     80 O     c    0.019766    0.956266    0.444784     0.86902    1.000000    
     81 O     c    0.160737    0.791424    0.746782     0.86902    1.000000    
     82 O     c    0.429578    0.953210    0.479735     0.86902    1.000000    
     83 O     c    0.092957    0.781923    0.030586     0.86902    1.000000    
     84 O     c    0.994549    0.802797    0.244902     0.86902    1.000000    
     85 O     c    0.443405    0.803991    0.522599     0.86902    1.000000    
     86 O     c    0.225809    0.753411    0.441301     0.86902    1.000000    
     87 O     c    0.233407    0.758685    0.262196     0.86902    1.000000    
     88 O     c    0.056972    0.573698    0.277656     0.86902    1.000000    
     89 O     c    0.066698    0.637410    0.973115     0.86902    1.000000    
     90 O     c    0.105094    0.662156    0.438771     0.86902    1.000000    
     91 O     c    0.455338    0.554111    0.344881     0.86902    1.000000    
     92 O     c    0.260183    0.618284    0.528983     0.86902    1.000000    
     93 O     c    0.953876    0.672366    0.301773     0.86902    1.000000    
     94 O     c    0.371673    0.608598    0.448253     0.86902    1.000000    
     95 O     c    0.338260    0.651094    0.261524     0.86902    1.000000    
     96 O     c    0.100236    0.844352    0.559877     0.86902    1.000000    
     97 O     c    0.020233    0.953841    0.263549     0.86902    1.000000    
     98 O     c    0.281103    0.488655    0.450708     0.86902    1.000000    
     99 O     c    0.256506    0.863521    0.680027     0.86902    1.000000    
    100 Si    c    0.511752    0.388923    0.508173     4.00000    1.000000    
    101 Si    c    0.327493    0.190222    0.521888     4.00000    1.000000    
    102 Si    c    0.511961    0.004845    0.508418     4.00000    1.000000    
    103 Si    c    0.199006    0.063790    0.514219     4.00000    1.000000    
    104 Si    c    0.495610    0.115498    0.665503     4.00000    1.000000    
    105 Si    c    0.140516    0.378440    0.523898     4.00000    1.000000    
    106 Si    c    0.300132    0.307528    0.672175     4.00000    1.000000    
    107 Si    c    0.407863    0.048667    0.799800     4.00000    1.000000    
    108 Si    c    0.010890    0.253212    0.515484     4.00000    1.000000    
    109 Si    c    0.306451    0.928522    0.648977     4.00000    1.000000    
    110 Si    c    0.346426    0.306151    0.376393     4.00000    1.000000    
    111 Si    c    0.282767    0.177713    0.809023     4.00000    1.000000    
    112 Si    c    0.114776    0.127670    0.656622     4.00000    1.000000    
    113 Si    c    0.607301    0.247802    0.788037     4.00000    1.000000    
    114 Si    c    0.476674    0.373574    0.790964     4.00000    1.000000    
    115 Si    c    0.488460    0.505201    0.662394     4.00000    1.000000    
    116 Si    c    0.393936    0.207577    0.024565     4.00000    1.000000    
    117 Si    c    0.516235    0.085280    0.012346     4.00000    1.000000    
    118 Si    c    0.511243    0.334813    0.007189     4.00000    1.000000    
    119 O     c    0.130511    0.038427    0.406868     0.86902    1.000000    
    120 O     c    0.528655    0.052423    0.609353     0.86902    1.000000    
    121 O     c    0.324019    0.227198    0.418309     0.86902    1.000000    
    122 O     c    0.967596    0.205727    0.413027     0.86902    1.000000    
    123 O     c    0.222493    0.365262    0.624817     0.86902    1.000000    
    124 O     c    0.460821    0.032671    0.918158     0.86902    1.000000    
    125 O     c    0.382379    0.358723    0.715564     0.86902    1.000000    
    126 O     c    0.658511    0.226427    0.904809     0.86902    1.000000    
    127 O     c    0.309547    0.186791    0.928977     0.86902    1.000000    
    128 O     c    0.486989    0.383746    0.905601     0.86902    1.000000    
    129 O     c    0.161434    0.390726    0.426203     0.86902    1.000000    
    130 O     c    0.341074    0.116565    0.783618     0.86902    1.000000    
    131 O     c    0.362637    0.969797    0.752755     0.86902    1.000000    
    132 O     c    0.505527    0.456266    0.579046     0.86902    1.000000    
    133 O     c    0.364556    0.291424    0.277048     0.86902    1.000000    
    134 O     c    0.095715    0.453210    0.544095     0.86902    1.000000    
    135 O     c    0.432336    0.281923    0.993244     0.86902    1.000000    
    136 O     c    0.530743    0.302797    0.778928     0.86902    1.000000    
    137 O     c    0.081888    0.303991    0.501231     0.86902    1.000000    
    138 O     c    0.299484    0.253411    0.582529     0.86902    1.000000    
    139 O     c    0.291885    0.258685    0.761634     0.86902    1.000000    
    140 O     c    0.468321    0.073698    0.746174     0.86902    1.000000    
    141 O     c    0.458595    0.137410    0.050715     0.86902    1.000000    
    142 O     c    0.420199    0.162156    0.585060     0.86902    1.000000    
    143 O     c    0.069955    0.054111    0.678949     0.86902    1.000000    
    144 O     c    0.265110    0.118284    0.494847     0.86902    1.000000    
    145 O     c    0.571417    0.172366    0.722057     0.86902    1.000000    
    146 O     c    0.153620    0.108598    0.575577     0.86902    1.000000    
    147 O     c    0.187033    0.151094    0.762306     0.86902    1.000000    
    148 O     c    0.425057    0.344352    0.463954     0.86902    1.000000    
    149 O     c    0.505060    0.453841    0.760281     0.86902    1.000000    
    150 O     c    0.244190    0.988655    0.573122     0.86902    1.000000    
    151 O     c    0.268787    0.363521    0.343803     0.86902    1.000000    
    152 Si    c    0.705082    0.198239    0.497535     4.00000    1.000000    
    153 Si    c    0.835809    0.072510    0.510176     4.00000    1.000000    
    154 Si    c    0.539747    0.117170    0.362943     4.00000    1.000000    
    155 Si    c    0.883650    0.379502    0.507310     4.00000    1.000000    
    156 Si    c    0.722988    0.317203    0.343834     4.00000    1.000000    
    157 Si    c    0.623487    0.052486    0.226729     4.00000    1.000000    
    158 Si    c    0.728067    0.938350    0.383463     4.00000    1.000000    
    159 Si    c    0.674546    0.308642    0.641819     4.00000    1.000000    
    160 Si    c    0.744955    0.183044    0.216213     4.00000    1.000000    
    161 Si    c    0.915370    0.130675    0.361013     4.00000    1.000000    
    162 Si    c    0.430009    0.253675    0.237579     4.00000    1.000000    
    163 Si    c    0.549722    0.385600    0.218721     4.00000    1.000000    
    164 Si    c    0.534512    0.502290    0.357754     4.00000    1.000000    
    165 Si    c    0.635148    0.210424    0.000250     4.00000    1.000000    
    166 O     c    0.904759    0.049655    0.618664     0.86902    1.000000    
    167 O     c    0.494880    0.059581    0.412806     0.86902    1.000000    
    168 O     c    0.710093    0.236696    0.600974     0.86902    1.000000    
    169 O     c    0.049907    0.197200    0.611792     0.86902    1.000000    
    170 O     c    0.803771    0.368400    0.403922     0.86902    1.000000    
    171 O     c    0.573511    0.034822    0.108163     0.86902    1.000000    
    172 O     c    0.647112    0.373583    0.285502     0.86902    1.000000    
    173 O     c    0.376694    0.222858    0.124794     0.86902    1.000000    
    174 O     c    0.718190    0.190764    0.096797     0.86902    1.000000    
    175 O     c    0.532214    0.392292    0.101021     0.86902    1.000000    
    176 O     c    0.857165    0.390014    0.601534     0.86902    1.000000    
    177 O     c    0.684105    0.125690    0.243411     0.86902    1.000000    
    178 O     c    0.675582    0.976672    0.275889     0.86902    1.000000    
    179 O     c    0.537448    0.427032    0.423742     0.86902    1.000000    
    180 O     c    0.672628    0.287769    0.749550     0.86902    1.000000    
    181 O     c    0.931337    0.453881    0.492391     0.86902    1.000000    
    182 O     c    0.593048    0.283866    0.028463     0.86902    1.000000    
    183 O     c    0.498532    0.313970    0.235439     0.86902    1.000000    
    184 O     c    0.941967    0.304488    0.534403     0.86902    1.000000    
    185 O     c    0.700064    0.266105    0.421291     0.86902    1.000000    
    186 O     c    0.741471    0.264943    0.264021     0.86902    1.000000    
    187 O     c    0.559376    0.071908    0.278112     0.86902    1.000000    
    188 O     c    0.571442    0.139226    0.972160     0.86902    1.000000    
    189 O     c    0.624342    0.145065    0.451607     0.86902    1.000000    
    190 O     c    0.972119    0.074833    0.326951     0.86902    1.000000    
    191 O     c    0.788460    0.148569    0.521721     0.86902    1.000000    
    192 O     c    0.477634    0.186641    0.313959     0.86902    1.000000    
    193 O     c    0.883711    0.087895    0.437602     0.86902    1.000000    
    194 O     c    0.838565    0.152352    0.259449     0.86902    1.000000    
    195 O     c    0.580451    0.325591    0.565368     0.86902    1.000000    
    196 O     c    0.523147    0.467574    0.249629     0.86902    1.000000    
    197 O     c    0.771261    0.003297    0.466524     0.86902    1.000000    
    198 O     c    0.729799    0.384399    0.656900     0.86902    1.000000    
    199 O     s    0.620533 *  0.549655 *  0.405166 *  -2.86902    1.000000    
    200 O     s    0.030413 *  0.559582 *  0.611024 *  -2.86902    1.000000    
    201 O     s    0.815200 *  0.736696 *  0.422856 *  -2.86902    1.000000    
    202 O     s    0.475386 *  0.697200 *  0.412038 *  -2.86902    1.000000    
    203 O     s    0.721522 *  0.868400 *  0.619908 *  -2.86902    1.000000    
    204 O     s    0.951782 *  0.534823 *  0.915667 *  -2.86902    1.000000    
    205 O     s    0.878181 *  0.873583 *  0.738328 *  -2.86902    1.000000    
    206 O     s    0.148599 *  0.722858 *  0.899036 *  -2.86902    1.000000    
    207 O     s    0.807103 *  0.690764 *  0.927033 *  -2.86902    1.000000    
    208 O     s    0.993079 *  0.892292 *  0.922809 *  -2.86902    1.000000    
    209 O     s    0.668127 *  0.890014 *  0.422296 *  -2.86902    1.000000    
    210 O     s    0.841188 *  0.625690 *  0.780419 *  -2.86902    1.000000    
    211 O     s    0.849711 *  0.476672 *  0.747941 *  -2.86902    1.000000    
    212 O     s    0.987845 *  0.927032 *  0.600088 *  -2.86902    1.000000    
    213 O     s    0.852665 *  0.787769 *  0.274280 *  -2.86902    1.000000    
    214 O     s    0.593956 *  0.953881 *  0.531440 *  -2.86902    1.000000    
    215 O     s    0.932245 *  0.783866 *  0.995367 *  -2.86902    1.000000    
    216 O     s    0.026761 *  0.813971 *  0.788391 *  -2.86902    1.000000    
    217 O     s    0.583326 *  0.804488 *  0.489427 *  -2.86902    1.000000    
    218 O     s    0.825229 *  0.766105 *  0.602539 *  -2.86902    1.000000    
    219 O     s    0.783822 *  0.764943 *  0.759809 *  -2.86902    1.000000    
    220 O     s    0.965917 *  0.571908 *  0.745718 *  -2.86902    1.000000    
    221 O     s    0.953851 *  0.639226 *  0.051670 *  -2.86902    1.000000    
    222 O     s    0.900951 *  0.645065 *  0.572223 *  -2.86902    1.000000    
    223 O     s    0.553174 *  0.574833 *  0.696879 *  -2.86902    1.000000    
    224 O     s    0.736833 *  0.648569 *  0.502109 *  -2.86902    1.000000    
    225 O     s    0.047659 *  0.686641 *  0.709871 *  -2.86902    1.000000    
    226 O     s    0.641582 *  0.587895 *  0.586228 *  -2.86902    1.000000    
    227 O     s    0.686728 *  0.652352 *  0.764381 *  -2.86902    1.000000    
    228 O     s    0.944842 *  0.825591 *  0.458462 *  -2.86902    1.000000    
    229 O     s    0.002146 *  0.967574 *  0.774201 *  -2.86902    1.000000    
    230 O     s    0.754032 *  0.503297 *  0.557306 *  -2.86902    1.000000    
    231 O     s    0.795494 *  0.884399 *  0.366930 *  -2.86902    1.000000    
    232 O     s    0.394782 *  0.538427 *  0.616962 *  -2.86902    1.000000    
    233 O     s    0.996638 *  0.552423 *  0.414477 *  -2.86902    1.000000    
    234 O     s    0.201274 *  0.727198 *  0.605521 *  -2.86902    1.000000    
    235 O     s    0.557697 *  0.705727 *  0.610803 *  -2.86902    1.000000    
    236 O     s    0.302800 *  0.865262 *  0.399013 *  -2.86902    1.000000    
    237 O     s    0.064471 *  0.532671 *  0.105672 *  -2.86902    1.000000    
    238 O     s    0.142914 *  0.858723 *  0.308266 *  -2.86902    1.000000    
    239 O     s    0.866782 *  0.726427 *  0.119021 *  -2.86902    1.000000    
    240 O     s    0.215746 *  0.686791 *  0.094853 *  -2.86902    1.000000    
    241 O     s    0.038304 *  0.883746 *  0.118229 *  -2.86902    1.000000    
    242 O     s    0.363859 *  0.890726 *  0.597628 *  -2.86902    1.000000    
    243 O     s    0.184219 *  0.616565 *  0.240212 *  -2.86902    1.000000    
    244 O     s    0.162656 *  0.469797 *  0.271075 *  -2.86902    1.000000    
    245 O     s    0.019766 *  0.956266 *  0.444784 *  -2.86902    1.000000    
    246 O     s    0.160737 *  0.791424 *  0.746782 *  -2.86902    1.000000    
    247 O     s    0.429578 *  0.953210 *  0.479735 *  -2.86902    1.000000    
    248 O     s    0.092957 *  0.781923 *  0.030586 *  -2.86902    1.000000    
    249 O     s    0.994549 *  0.802797 *  0.244902 *  -2.86902    1.000000    
    250 O     s    0.443405 *  0.803991 *  0.522599 *  -2.86902    1.000000    
    251 O     s    0.225809 *  0.753411 *  0.441301 *  -2.86902    1.000000    
    252 O     s    0.233407 *  0.758685 *  0.262196 *  -2.86902    1.000000    
    253 O     s    0.056972 *  0.573698 *  0.277656 *  -2.86902    1.000000    
    254 O     s    0.066698 *  0.637410 *  0.973115 *  -2.86902    1.000000    
    255 O     s    0.105094 *  0.662156 *  0.438771 *  -2.86902    1.000000    
    256 O     s    0.455338 *  0.554111 *  0.344881 *  -2.86902    1.000000    
    257 O     s    0.260183 *  0.618284 *  0.528983 *  -2.86902    1.000000    
    258 O     s    0.953876 *  0.672366 *  0.301773 *  -2.86902    1.000000    
    259 O     s    0.371673 *  0.608598 *  0.448253 *  -2.86902    1.000000    
    260 O     s    0.338260 *  0.651094 *  0.261524 *  -2.86902    1.000000    
    261 O     s    0.100236 *  0.844352 *  0.559877 *  -2.86902    1.000000    
    262 O     s    0.020233 *  0.953841 *  0.263549 *  -2.86902    1.000000    
    263 O     s    0.281103 *  0.488655 *  0.450708 *  -2.86902    1.000000    
    264 O     s    0.256506 *  0.863521 *  0.680027 *  -2.86902    1.000000    
    265 O     s    0.130511 *  0.038427 *  0.406868 *  -2.86902    1.000000    
    266 O     s    0.528655 *  0.052423 *  0.609353 *  -2.86902    1.000000    
    267 O     s    0.324019 *  0.227198 *  0.418309 *  -2.86902    1.000000    
    268 O     s    0.967596 *  0.205727 *  0.413027 *  -2.86902    1.000000    
    269 O     s    0.222493 *  0.365262 *  0.624817 *  -2.86902    1.000000    
    270 O     s    0.460821 *  0.032671 *  0.918158 *  -2.86902    1.000000    
    271 O     s    0.382379 *  0.358723 *  0.715564 *  -2.86902    1.000000    
    272 O     s    0.658511 *  0.226427 *  0.904809 *  -2.86902    1.000000    
    273 O     s    0.309547 *  0.186791 *  0.928977 *  -2.86902    1.000000    
    274 O     s    0.486989 *  0.383746 *  0.905601 *  -2.86902    1.000000    
    275 O     s    0.161434 *  0.390726 *  0.426203 *  -2.86902    1.000000    
    276 O     s    0.341074 *  0.116565 *  0.783618 *  -2.86902    1.000000    
    277 O     s    0.362637 *  0.969797 *  0.752755 *  -2.86902    1.000000    
    278 O     s    0.505527 *  0.456266 *  0.579046 *  -2.86902    1.000000    
    279 O     s    0.364556 *  0.291424 *  0.277048 *  -2.86902    1.000000    
    280 O     s    0.095715 *  0.453210 *  0.544095 *  -2.86902    1.000000    
    281 O     s    0.432336 *  0.281923 *  0.993244 *  -2.86902    1.000000    
    282 O     s    0.530743 *  0.302797 *  0.778928 *  -2.86902    1.000000    
    283 O     s    0.081888 *  0.303991 *  0.501231 *  -2.86902    1.000000    
    284 O     s    0.299484 *  0.253411 *  0.582529 *  -2.86902    1.000000    
    285 O     s    0.291885 *  0.258685 *  0.761634 *  -2.86902    1.000000    
    286 O     s    0.468321 *  0.073698 *  0.746174 *  -2.86902    1.000000    
    287 O     s    0.458595 *  0.137410 *  0.050715 *  -2.86902    1.000000    
    288 O     s    0.420199 *  0.162156 *  0.585060 *  -2.86902    1.000000    
    289 O     s    0.069955 *  0.054111 *  0.678949 *  -2.86902    1.000000    
    290 O     s    0.265110 *  0.118284 *  0.494847 *  -2.86902    1.000000    
    291 O     s    0.571417 *  0.172366 *  0.722057 *  -2.86902    1.000000    
    292 O     s    0.153620 *  0.108598 *  0.575577 *  -2.86902    1.000000    
    293 O     s    0.187033 *  0.151094 *  0.762306 *  -2.86902    1.000000    
    294 O     s    0.425057 *  0.344352 *  0.463954 *  -2.86902    1.000000    
    295 O     s    0.505060 *  0.453841 *  0.760281 *  -2.86902    1.000000    
    296 O     s    0.244190 *  0.988655 *  0.573122 *  -2.86902    1.000000    
    297 O     s    0.268787 *  0.363521 *  0.343803 *  -2.86902    1.000000    
    298 O     s    0.904759 *  0.049655 *  0.618664 *  -2.86902    1.000000    
    299 O     s    0.494880 *  0.059581 *  0.412806 *  -2.86902    1.000000    
    300 O     s    0.710093 *  0.236696 *  0.600974 *  -2.86902    1.000000    
    301 O     s    0.049907 *  0.197200 *  0.611792 *  -2.86902    1.000000    
    302 O     s    0.803771 *  0.368400 *  0.403922 *  -2.86902    1.000000    
    303 O     s    0.573511 *  0.034822 *  0.108163 *  -2.86902    1.000000    
    304 O     s    0.647112 *  0.373583 *  0.285502 *  -2.86902    1.000000    
    305 O     s    0.376694 *  0.222858 *  0.124794 *  -2.86902    1.000000    
    306 O     s    0.718190 *  0.190764 *  0.096797 *  -2.86902    1.000000    
    307 O     s    0.532214 *  0.392292 *  0.101021 *  -2.86902    1.000000    
    308 O     s    0.857165 *  0.390014 *  0.601534 *  -2.86902    1.000000    
    309 O     s    0.684105 *  0.125690 *  0.243411 *  -2.86902    1.000000    
    310 O     s    0.675582 *  0.976672 *  0.275889 *  -2.86902    1.000000    
    311 O     s    0.537448 *  0.427032 *  0.423742 *  -2.86902    1.000000    
    312 O     s    0.672628 *  0.287769 *  0.749550 *  -2.86902    1.000000    
    313 O     s    0.931337 *  0.453881 *  0.492391 *  -2.86902    1.000000    
    314 O     s    0.593048 *  0.283866 *  0.028463 *  -2.86902    1.000000    
    315 O     s    0.498532 *  0.313970 *  0.235439 *  -2.86902    1.000000    
    316 O     s    0.941967 *  0.304488 *  0.534403 *  -2.86902    1.000000    
    317 O     s    0.700064 *  0.266105 *  0.421291 *  -2.86902    1.000000    
    318 O     s    0.741471 *  0.264943 *  0.264021 *  -2.86902    1.000000    
    319 O     s    0.559376 *  0.071908 *  0.278112 *  -2.86902    1.000000    
    320 O     s    0.571442 *  0.139226 *  0.972160 *  -2.86902    1.000000    
    321 O     s    0.624342 *  0.145065 *  0.451607 *  -2.86902    1.000000    
    322 O     s    0.972119 *  0.074833 *  0.326951 *  -2.86902    1.000000    
    323 O     s    0.788460 *  0.148569 *  0.521721 *  -2.86902    1.000000    
    324 O     s    0.477634 *  0.186641 *  0.313959 *  -2.86902    1.000000    
    325 O     s    0.883711 *  0.087895 *  0.437602 *  -2.86902    1.000000    
    326 O     s    0.838565 *  0.152352 *  0.259449 *  -2.86902    1.000000    
    327 O     s    0.580451 *  0.325591 *  0.565368 *  -2.86902    1.000000    
    328 O     s    0.523147 *  0.467574 *  0.249629 *  -2.86902    1.000000    
    329 O     s    0.771261 *  0.003297 *  0.466524 *  -2.86902    1.000000    
    330 O     s    0.729799 *  0.384399 *  0.656900 *  -2.86902    1.000000    
--------------------------------------------------------------------------------



********************************************************************************
*  General input information                                                   *
********************************************************************************

  Species output for all configurations : 

--------------------------------------------------------------------------------
  Species    Type    Atomic    Atomic    Charge       Radii (Angs)     Library
                     Number     Mass       (e)     Cova   Ionic  VDW   Symbol
--------------------------------------------------------------------------------
    O        Core        8      16.00   0.869020   0.730  0.000  1.360 O        
    O        Shell       8       0.00  -2.869020   0.730  0.000  0.000 O        
    Si       Core       14      28.09   4.000000   1.200  0.000  2.100 Si       
--------------------------------------------------------------------------------


  Lattice summation method               =    Ewald          (3-D)
                                         =    Parry          (2-D)
                                         =    Saunders et al (1-D)
  Accuracy factor for lattice sums       =   12.000


  Analytic derivatives to be used

  Time limit = Infinity

  Maximum range for interatomic potentials =    100000.000000 Angstroms

  General interatomic potentials :

--------------------------------------------------------------------------------
Atom  Types   Potential      Parameter       Value         Units   Cutoffs(Ang)
  1     2                                                            Min /  Max 
--------------------------------------------------------------------------------
Si   c O    s Buckingham    Buckingham A     1283.9070    eV        0.000 10.000
                            Buckingham rho  0.32052000    Ang       
                            Buckingham C     10.661580    eV*Ang^6  
--------------------------------------------------------------------------------
O    s O    s Buckingham    Buckingham A     22764.000    eV        0.000 12.000
                            Buckingham rho  0.14900000    Ang       
                            Buckingham C     27.879000    eV*Ang^6  
--------------------------------------------------------------------------------
O    c O    s Spring (c-s)  Spring k 2       74.920000    eV*Ang^-2 0.000  1.100
                            Spring k 4       0.0000000    eV*Ang^-4 
--------------------------------------------------------------------------------

  General Three-body potentials :

--------------------------------------------------------------------------------
  Atoms       Potential      Parameter       Value         Units   Cutoffs(Ang)
  1 / 2 / 3                                                          Min /  Max 
--------------------------------------------------------------------------------
Si    core    Harmonic      Three-body cnst  2.0972400    eV*rad^-2 0.000  1.900
O     shel                  Three-body angl  109.47000    degrees   0.000  1.900
O     shel                  Three-body k4    0.0000000    eV*rad^-4 0.000  3.500
                            Three-body k3    0.0000000    eV*rad^-3 
--------------------------------------------------------------------------------
Si    core    Harmonic      Three-body cnst  2.0972400    eV*rad^-2 0.000  1.900
O     shel                  Three-body angl  109.47000    degrees   0.000  1.900
õ(    shel                  Three-body k4    0.0000000    eV*rad^-4 0.000  3.500
                            Three-body k3    0.0000000    eV*rad^-3 
--------------------------------------------------------------------------------
Si    core    Harmonic      Three-body cnst  2.0972400    eV*rad^-2 0.000  1.900
õ(    shel                  Three-body angl  109.47000    degrees   0.000  1.900
õ(    shel                  Three-body k4    0.0000000    eV*rad^-4 0.000  3.500
                            Three-body k3    0.0000000    eV*rad^-3 
--------------------------------------------------------------------------------

********************************************************************************
*  Output for configuration   1 : ReferenceDataBase/COE-11                     *
********************************************************************************


  Components of energy : 

--------------------------------------------------------------------------------
  Interatomic potentials     =        2082.52367270 eV    
  Three-body potentials      =           0.58739767 eV    
  Monopole - monopole (real) =       -8154.35436477 eV    
  Monopole - monopole (recip)=       -2319.45755589 eV    
  Monopole - monopole (total)=      -10473.81192066 eV    
--------------------------------------------------------------------------------
  Total lattice energy       =       -8390.70085028 eV    
--------------------------------------------------------------------------------
  Total lattice energy       =         -809574.3684 kJ/(mole unit cells)
--------------------------------------------------------------------------------


  Number of variables =      396

  Maximum number of calculations  =           500
  Maximum Hessian update interval =            10
  Maximum step size               =   0.100000000
  Maximum parameter tolerance     =   0.000010000
  Maximum function  tolerance     =   0.000010000
  Maximum gradient  tolerance     =   0.001000000
  Maximum gradient  component     =   0.010000000

  Newton-Raphson optimiser to be used

  BFGS hessian update to be used

  Lower half triangular hessian to be used

  Minimiser to switch to RFO
  When gradient norm is less than     0.080000

  Switch max step size to       0.30000000 when gnorm is less than     0.005000

  Shell only optimisation

  Dumpfile to be written after every cycle

  Start of bulk optimisation :

  Cycle:      0 Energy:     -8390.700850  Gnorm:      6.835802  CPU:    1.007
  ** Hessian calculated **
  Cycle:      1 Energy:     -8481.143292  Gnorm:      1.332619  CPU:    2.348
  ** Hessian calculated **
  Cycle:      2 Energy:     -8483.866695  Gnorm:      0.666200  CPU:    3.979
  Cycle:      3 Energy:     -8484.547974  Gnorm:      0.333035  CPU:    4.875
  Cycle:      4 Energy:     -8484.718423  Gnorm:      0.166507  CPU:    5.772
  Cycle:      5 Energy:     -8484.761097  Gnorm:      0.083252  CPU:    6.668
  Cycle:      6 Energy:     -8484.771738  Gnorm:      0.041626  CPU:    7.568
  ** Hessian has required structure
  ** Hessian has required structure
  Cycle:      7 Energy:     -8484.774404  Gnorm:      0.020813  CPU:    9.393
  ** Hessian has required structure
  Cycle:      8 Energy:     -8484.775070  Gnorm:      0.010406  CPU:   10.390
  ** Hessian has required structure
  Cycle:      9 Energy:     -8484.775237  Gnorm:      0.005203  CPU:   11.392
  ** Hessian has required structure
  Cycle:     10 Energy:     -8484.775265  Gnorm:      0.003642  CPU:   12.121
  ** Hessian has required structure
  Cycle:     11 Energy:     -8484.775291  Gnorm:      0.000676  CPU:   12.972
  ** Hessian has required structure


  **** Optimisation achieved ****


  Final energy =   -8484.77529234 eV      
  Final Gnorm  =       0.00006764

  Components of energy : 

--------------------------------------------------------------------------------
  Interatomic potentials     =        2305.10848782 eV    
  Three-body potentials      =           1.22666013 eV    
  Monopole - monopole (real) =       -7501.81521380 eV    
  Monopole - monopole (recip)=       -3289.29522650 eV    
  Monopole - monopole (total)=      -10791.11044030 eV    
--------------------------------------------------------------------------------
  Total lattice energy       =       -8484.77529234 eV    
--------------------------------------------------------------------------------
  Total lattice energy       =         -818651.1140 kJ/(mole unit cells)
--------------------------------------------------------------------------------

  Final fractional coordinates of atoms :

--------------------------------------------------------------------------------
   No.  Atomic        x           y          z          Radius
        Label       (Frac)      (Frac)     (Frac)       (Angs) 
--------------------------------------------------------------------------------
     1  Si    c     0.013541    0.888923    0.515657    0.000000
     2  Si    c     0.820211    0.698239    0.526295    0.000000
     3  Si    c     0.013332    0.504845    0.515412    0.000000
     4  Si    c     0.689484    0.572510    0.513654    0.000000
     5  Si    c     0.985546    0.617170    0.660887    0.000000
     6  Si    c     0.641643    0.879502    0.516521    0.000000
     7  Si    c     0.802304    0.817203    0.679996    0.000000
     8  Si    c     0.901806    0.552486    0.797101    0.000000
     9  Si    c     0.514403    0.753212    0.508346    0.000000
    10  Si    c     0.797226    0.438350    0.640367    0.000000
    11  Si    c     0.850747    0.808642    0.382011    0.000000
    12  Si    c     0.780338    0.683044    0.807617    0.000000
    13  Si    c     0.609923    0.630675    0.662817    0.000000
    14  Si    c     0.095284    0.753675    0.786251    0.000000
    15  Si    c     0.975571    0.885600    0.805109    0.000000
    16  Si    c     0.990781    0.002290    0.666076    0.000000
    17  Si    c     0.890145    0.710424    0.023580    0.000000
    18  Si    c     0.009058    0.585280    0.011484    0.000000
    19  Si    c     0.014050    0.834813    0.016641    0.000000
    20  O     c     0.620533    0.549655    0.405166    0.000000
    21  O     c     0.030413    0.559582    0.611024    0.000000
    22  O     c     0.815200    0.736696    0.422856    0.000000
    23  O     c     0.475386    0.697200    0.412038    0.000000
    24  O     c     0.721522    0.868400    0.619908    0.000000
    25  O     c     0.951782    0.534823    0.915667    0.000000
    26  O     c     0.878181    0.873583    0.738328    0.000000
    27  O     c     0.148599    0.722858    0.899036    0.000000
    28  O     c     0.807103    0.690764    0.927033    0.000000
    29  O     c     0.993079    0.892292    0.922809    0.000000
    30  O     c     0.668127    0.890014    0.422296    0.000000
    31  O     c     0.841188    0.625690    0.780419    0.000000
    32  O     c     0.849711    0.476672    0.747941    0.000000
    33  O     c     0.987845    0.927032    0.600088    0.000000
    34  O     c     0.852665    0.787769    0.274280    0.000000
    35  O     c     0.593956    0.953881    0.531440    0.000000
    36  O     c     0.932245    0.783866    0.995367    0.000000
    37  O     c     0.026761    0.813971    0.788391    0.000000
    38  O     c     0.583326    0.804488    0.489427    0.000000
    39  O     c     0.825229    0.766105    0.602539    0.000000
    40  O     c     0.783822    0.764943    0.759809    0.000000
    41  O     c     0.965917    0.571908    0.745718    0.000000
    42  O     c     0.953851    0.639226    0.051670    0.000000
    43  O     c     0.900951    0.645065    0.572223    0.000000
    44  O     c     0.553174    0.574833    0.696879    0.000000
    45  O     c     0.736833    0.648569    0.502109    0.000000
    46  O     c     0.047659    0.686641    0.709871    0.000000
    47  O     c     0.641582    0.587895    0.586228    0.000000
    48  O     c     0.686728    0.652352    0.764381    0.000000
    49  O     c     0.944842    0.825591    0.458462    0.000000
    50  O     c     0.002146    0.967574    0.774201    0.000000
    51  O     c     0.754032    0.503297    0.557306    0.000000
    52  O     c     0.795494    0.884399    0.366930    0.000000
    53  Si    c     0.197800    0.690222    0.501942    0.000000
    54  Si    c     0.326287    0.563790    0.509612    0.000000
    55  Si    c     0.029683    0.615498    0.358327    0.000000
    56  Si    c     0.384777    0.878440    0.499932    0.000000
    57  Si    c     0.225161    0.807528    0.351655    0.000000
    58  Si    c     0.117430    0.548667    0.224030    0.000000
    59  Si    c     0.218842    0.428522    0.374853    0.000000
    60  Si    c     0.178867    0.806151    0.647437    0.000000
    61  Si    c     0.242526    0.677713    0.214807    0.000000
    62  Si    c     0.410516    0.627670    0.367208    0.000000
    63  Si    c     0.917992    0.747802    0.235793    0.000000
    64  Si    c     0.048619    0.873574    0.232866    0.000000
    65  Si    c     0.036832    0.005201    0.361436    0.000000
    66  Si    c     0.131357    0.707577    0.999265    0.000000
    67  O     c     0.394782    0.538427    0.616962    0.000000
    68  O     c     0.996638    0.552423    0.414477    0.000000
    69  O     c     0.201274    0.727198    0.605521    0.000000
    70  O     c     0.557697    0.705727    0.610803    0.000000
    71  O     c     0.302800    0.865262    0.399013    0.000000
    72  O     c     0.064471    0.532671    0.105672    0.000000
    73  O     c     0.142914    0.858723    0.308266    0.000000
    74  O     c     0.866782    0.726427    0.119021    0.000000
    75  O     c     0.215746    0.686791    0.094853    0.000000
    76  O     c     0.038304    0.883746    0.118229    0.000000
    77  O     c     0.363859    0.890726    0.597628    0.000000
    78  O     c     0.184219    0.616565    0.240212    0.000000
    79  O     c     0.162656    0.469797    0.271075    0.000000
    80  O     c     0.019766    0.956266    0.444784    0.000000
    81  O     c     0.160737    0.791424    0.746782    0.000000
    82  O     c     0.429578    0.953210    0.479735    0.000000
    83  O     c     0.092957    0.781923    0.030586    0.000000
    84  O     c     0.994549    0.802797    0.244902    0.000000
    85  O     c     0.443405    0.803991    0.522599    0.000000
    86  O     c     0.225809    0.753411    0.441301    0.000000
    87  O     c     0.233407    0.758685    0.262196    0.000000
    88  O     c     0.056972    0.573698    0.277656    0.000000
    89  O     c     0.066698    0.637410    0.973115    0.000000
    90  O     c     0.105094    0.662156    0.438771    0.000000
    91  O     c     0.455338    0.554111    0.344881    0.000000
    92  O     c     0.260183    0.618284    0.528983    0.000000
    93  O     c     0.953876    0.672366    0.301773    0.000000
    94  O     c     0.371673    0.608598    0.448253    0.000000
    95  O     c     0.338260    0.651094    0.261524    0.000000
    96  O     c     0.100236    0.844352    0.559877    0.000000
    97  O     c     0.020233    0.953841    0.263549    0.000000
    98  O     c     0.281103    0.488655    0.450708    0.000000
    99  O     c     0.256506    0.863521    0.680027    0.000000
   100  Si    c     0.511752    0.388923    0.508173    0.000000
   101  Si    c     0.327493    0.190222    0.521888    0.000000
   102  Si    c     0.511961    0.004845    0.508418    0.000000
   103  Si    c     0.199006    0.063790    0.514219    0.000000
   104  Si    c     0.495610    0.115498    0.665503    0.000000
   105  Si    c     0.140516    0.378440    0.523898    0.000000
   106  Si    c     0.300132    0.307528    0.672175    0.000000
   107  Si    c     0.407863    0.048667    0.799800    0.000000
   108  Si    c     0.010890    0.253212    0.515484    0.000000
   109  Si    c     0.306451    0.928522    0.648977    0.000000
   110  Si    c     0.346426    0.306151    0.376393    0.000000
   111  Si    c     0.282767    0.177713    0.809023    0.000000
   112  Si    c     0.114776    0.127670    0.656622    0.000000
   113  Si    c     0.607301    0.247802    0.788037    0.000000
   114  Si    c     0.476674    0.373574    0.790964    0.000000
   115  Si    c     0.488460    0.505201    0.662394    0.000000
   116  Si    c     0.393936    0.207577    0.024565    0.000000
   117  Si    c     0.516235    0.085280    0.012346    0.000000
   118  Si    c     0.511243    0.334813    0.007189    0.000000
   119  O     c     0.130511    0.038427    0.406868    0.000000
   120  O     c     0.528655    0.052423    0.609353    0.000000
   121  O     c     0.324019    0.227198    0.418309    0.000000
   122  O     c     0.967596    0.205727    0.413027    0.000000
   123  O     c     0.222493    0.365262    0.624817    0.000000
   124  O     c     0.460821    0.032671    0.918158    0.000000
   125  O     c     0.382379    0.358723    0.715564    0.000000
   126  O     c     0.658511    0.226427    0.904809    0.000000
   127  O     c     0.309547    0.186791    0.928977    0.000000
   128  O     c     0.486989    0.383746    0.905601    0.000000
   129  O     c     0.161434    0.390726    0.426203    0.000000
   130  O     c     0.341074    0.116565    0.783618    0.000000
   131  O     c     0.362637    0.969797    0.752755    0.000000
   132  O     c     0.505527    0.456266    0.579046    0.000000
   133  O     c     0.364556    0.291424    0.277048    0.000000
   134  O     c     0.095715    0.453210    0.544095    0.000000
   135  O     c     0.432336    0.281923    0.993244    0.000000
   136  O     c     0.530743    0.302797    0.778928    0.000000
   137  O     c     0.081888    0.303991    0.501231    0.000000
   138  O     c     0.299484    0.253411    0.582529    0.000000
   139  O     c     0.291885    0.258685    0.761634    0.000000
   140  O     c     0.468321    0.073698    0.746174    0.000000
   141  O     c     0.458595    0.137410    0.050715    0.000000
   142  O     c     0.420199    0.162156    0.585060    0.000000
   143  O     c     0.069955    0.054111    0.678949    0.000000
   144  O     c     0.265110    0.118284    0.494847    0.000000
   145  O     c     0.571417    0.172366    0.722057    0.000000
   146  O     c     0.153620    0.108598    0.575577    0.000000
   147  O     c     0.187033    0.151094    0.762306    0.000000
   148  O     c     0.425057    0.344352    0.463954    0.000000
   149  O     c     0.505060    0.453841    0.760281    0.000000
   150  O     c     0.244190    0.988655    0.573122    0.000000
   151  O     c     0.268787    0.363521    0.343803    0.000000
   152  Si    c     0.705082    0.198239    0.497535    0.000000
   153  Si    c     0.835809    0.072510    0.510176    0.000000
   154  Si    c     0.539747    0.117170    0.362943    0.000000
   155  Si    c     0.883650    0.379502    0.507310    0.000000
   156  Si    c     0.722988    0.317203    0.343834    0.000000
   157  Si    c     0.623487    0.052486    0.226729    0.000000
   158  Si    c     0.728067    0.938350    0.383463    0.000000
   159  Si    c     0.674546    0.308642    0.641819    0.000000
   160  Si    c     0.744955    0.183044    0.216213    0.000000
   161  Si    c     0.915370    0.130675    0.361013    0.000000
   162  Si    c     0.430009    0.253675    0.237579    0.000000
   163  Si    c     0.549722    0.385600    0.218721    0.000000
   164  Si    c     0.534512    0.502290    0.357754    0.000000
   165  Si    c     0.635148    0.210424    0.000250    0.000000
   166  O     c     0.904759    0.049655    0.618664    0.000000
   167  O     c     0.494880    0.059581    0.412806    0.000000
   168  O     c     0.710093    0.236696    0.600974    0.000000
   169  O     c     0.049907    0.197200    0.611792    0.000000
   170  O     c     0.803771    0.368400    0.403922    0.000000
   171  O     c     0.573511    0.034822    0.108163    0.000000
   172  O     c     0.647112    0.373583    0.285502    0.000000
   173  O     c     0.376694    0.222858    0.124794    0.000000
   174  O     c     0.718190    0.190764    0.096797    0.000000
   175  O     c     0.532214    0.392292    0.101021    0.000000
   176  O     c     0.857165    0.390014    0.601534    0.000000
   177  O     c     0.684105    0.125690    0.243411    0.000000
   178  O     c     0.675582    0.976672    0.275889    0.000000
   179  O     c     0.537448    0.427032    0.423742    0.000000
   180  O     c     0.672628    0.287769    0.749550    0.000000
   181  O     c     0.931337    0.453881    0.492391    0.000000
   182  O     c     0.593048    0.283866    0.028463    0.000000
   183  O     c     0.498532    0.313970    0.235439    0.000000
   184  O     c     0.941967    0.304488    0.534403    0.000000
   185  O     c     0.700064    0.266105    0.421291    0.000000
   186  O     c     0.741471    0.264943    0.264021    0.000000
   187  O     c     0.559376    0.071908    0.278112    0.000000
   188  O     c     0.571442    0.139226    0.972160    0.000000
   189  O     c     0.624342    0.145065    0.451607    0.000000
   190  O     c     0.972119    0.074833    0.326951    0.000000
   191  O     c     0.788460    0.148569    0.521721    0.000000
   192  O     c     0.477634    0.186641    0.313959    0.000000
   193  O     c     0.883711    0.087895    0.437602    0.000000
   194  O     c     0.838565    0.152352    0.259449    0.000000
   195  O     c     0.580451    0.325591    0.565368    0.000000
   196  O     c     0.523147    0.467574    0.249629    0.000000
   197  O     c     0.771261    0.003297    0.466524    0.000000
   198  O     c     0.729799    0.384399    0.656900    0.000000
   199  O     s     0.618670    0.547020    0.411887    0.000000
   200  O     s     0.023492    0.559973    0.606001    0.000000
   201  O     s     0.819647    0.740427    0.429717    0.000000
   202  O     s     0.472470    0.695552    0.417490    0.000000
   203  O     s     0.721717    0.863878    0.615149    0.000000
   204  O     s     0.952661    0.542172    0.913480    0.000000
   205  O     s     0.880359    0.868478    0.739060    0.000000
   206  O     s     0.141065    0.724465    0.898034    0.000000
   207  O     s     0.813398    0.692065    0.924583    0.000000
   208  O     s     0.993507    0.885189    0.920318    0.000000
   209  O     s     0.671966    0.894272    0.428287    0.000000
   210  O     s     0.841209    0.623989    0.785160    0.000000
   211  O     s     0.849796    0.481024    0.741618    0.000000
   212  O     s     0.991028    0.930884    0.597809    0.000000
   213  O     s     0.859686    0.785634    0.281766    0.000000
   214  O     s     0.590129    0.951088    0.527055    0.000000
   215  O     s     0.936683    0.781340    0.000844    0.000000
   216  O     s     0.028838    0.815044    0.790157    0.000000
   217  O     s     0.582068    0.807082    0.494619    0.000000
   218  O     s     0.822011    0.764136    0.602533    0.000000
   219  O     s     0.785540    0.761481    0.756162    0.000000
   220  O     s     0.960850    0.574793    0.741979    0.000000
   221  O     s     0.952985    0.641164    0.044233    0.000000
   222  O     s     0.901071    0.648005    0.576789    0.000000
   223  O     s     0.552262    0.573290    0.688968    0.000000
   224  O     s     0.740763    0.645509    0.506173    0.000000
   225  O     s     0.045858    0.686241    0.712875    0.000000
   226  O     s     0.643421    0.590974    0.586577    0.000000
   227  O     s     0.688820    0.653429    0.757759    0.000000
   228  O     s     0.942238    0.830835    0.456475    0.000000
   229  O     s     0.998079    0.962529    0.765831    0.000000
   230  O     s     0.751574    0.503959    0.561560    0.000000
   231  O     s     0.794043    0.881966    0.370656    0.000000
   232  O     s     0.397458    0.537604    0.610059    0.000000
   233  O     s     0.002312    0.554224    0.419490    0.000000
   234  O     s     0.198446    0.731789    0.598740    0.000000
   235  O     s     0.558771    0.702559    0.605191    0.000000
   236  O     s     0.303195    0.860307    0.404847    0.000000
   237  O     s     0.064059    0.540127    0.107938    0.000000
   238  O     s     0.141695    0.854478    0.304757    0.000000
   239  O     s     0.874906    0.726987    0.121055    0.000000
   240  O     s     0.209544    0.688021    0.097416    0.000000
   241  O     s     0.036729    0.877109    0.119645    0.000000
   242  O     s     0.359694    0.893653    0.592492    0.000000
   243  O     s     0.183287    0.615858    0.235660    0.000000
   244  O     s     0.163729    0.474285    0.277266    0.000000
   245  O     s     0.021021    0.953993    0.443583    0.000000
   246  O     s     0.155324    0.788808    0.740164    0.000000
   247  O     s     0.433757    0.950527    0.485286    0.000000
   248  O     s     0.088393    0.779498    0.025511    0.000000
   249  O     s     0.992134    0.804598    0.242412    0.000000
   250  O     s     0.444915    0.806583    0.518340    0.000000
   251  O     s     0.222595    0.752360    0.438102    0.000000
   252  O     s     0.233485    0.755077    0.267001    0.000000
   253  O     s     0.060887    0.575611    0.280735    0.000000
   254  O     s     0.067441    0.639462    0.980213    0.000000
   255  O     s     0.107265    0.660027    0.436895    0.000000
   256  O     s     0.459303    0.556616    0.348996    0.000000
   257  O     s     0.260661    0.620146    0.523656    0.000000
   258  O     s     0.958495    0.674436    0.300788    0.000000
   259  O     s     0.370987    0.605767    0.446005    0.000000
   260  O     s     0.335548    0.651482    0.268020    0.000000
   261  O     s     0.099055    0.845203    0.564554    0.000000
   262  O     s     0.025307    0.950549    0.271166    0.000000
   263  O     s     0.279181    0.490528    0.448840    0.000000
   264  O     s     0.253372    0.864443    0.672671    0.000000
   265  O     s     0.127835    0.037604    0.413771    0.000000
   266  O     s     0.522981    0.054224    0.604340    0.000000
   267  O     s     0.326847    0.231789    0.425090    0.000000
   268  O     s     0.966522    0.202559    0.418639    0.000000
   269  O     s     0.222098    0.360307    0.618983    0.000000
   270  O     s     0.461234    0.040127    0.915892    0.000000
   271  O     s     0.383598    0.354478    0.719073    0.000000
   272  O     s     0.650387    0.226987    0.902775    0.000000
   273  O     s     0.315749    0.188021    0.926414    0.000000
   274  O     s     0.488564    0.377109    0.904185    0.000000
   275  O     s     0.165599    0.393653    0.431338    0.000000
   276  O     s     0.342006    0.115858    0.788170    0.000000
   277  O     s     0.361564    0.974285    0.746565    0.000000
   278  O     s     0.504272    0.453993    0.580247    0.000000
   279  O     s     0.369969    0.288808    0.283666    0.000000
   280  O     s     0.091536    0.450527    0.538544    0.000000
   281  O     s     0.436900    0.279498    0.998319    0.000000
   282  O     s     0.533159    0.304598    0.781418    0.000000
   283  O     s     0.080378    0.306583    0.505490    0.000000
   284  O     s     0.302698    0.252360    0.585728    0.000000
   285  O     s     0.291808    0.255077    0.756829    0.000000
   286  O     s     0.464406    0.075611    0.743095    0.000000
   287  O     s     0.457852    0.139462    0.043617    0.000000
   288  O     s     0.418028    0.160027    0.586936    0.000000
   289  O     s     0.065990    0.056616    0.674834    0.000000
   290  O     s     0.264632    0.120146    0.500175    0.000000
   291  O     s     0.566798    0.174436    0.723042    0.000000
   292  O     s     0.154306    0.105767    0.577825    0.000000
   293  O     s     0.189745    0.151482    0.755810    0.000000
   294  O     s     0.426238    0.345203    0.459276    0.000000
   295  O     s     0.499986    0.450549    0.752665    0.000000
   296  O     s     0.246112    0.990528    0.574991    0.000000
   297  O     s     0.271920    0.364443    0.351159    0.000000
   298  O     s     0.906623    0.047020    0.611943    0.000000
   299  O     s     0.501801    0.059973    0.417829    0.000000
   300  O     s     0.705646    0.240427    0.594113    0.000000
   301  O     s     0.052823    0.195552    0.606340    0.000000
   302  O     s     0.803576    0.363878    0.408681    0.000000
   303  O     s     0.572632    0.042172    0.110350    0.000000
   304  O     s     0.644934    0.368478    0.284770    0.000000
   305  O     s     0.384228    0.224465    0.125796    0.000000
   306  O     s     0.711895    0.192065    0.099247    0.000000
   307  O     s     0.531786    0.385189    0.103512    0.000000
   308  O     s     0.853327    0.394272    0.595544    0.000000
   309  O     s     0.684084    0.123989    0.238670    0.000000
   310  O     s     0.675497    0.981024    0.282212    0.000000
   311  O     s     0.534265    0.430884    0.426021    0.000000
   312  O     s     0.665607    0.285634    0.742064    0.000000
   313  O     s     0.935164    0.451088    0.496775    0.000000
   314  O     s     0.588610    0.281340    0.022986    0.000000
   315  O     s     0.496455    0.315044    0.233673    0.000000
   316  O     s     0.943225    0.307082    0.529211    0.000000
   317  O     s     0.703282    0.264136    0.421297    0.000000
   318  O     s     0.739753    0.261481    0.267668    0.000000
   319  O     s     0.564443    0.074793    0.281851    0.000000
   320  O     s     0.572308    0.141164    0.979597    0.000000
   321  O     s     0.624222    0.148005    0.447042    0.000000
   322  O     s     0.973030    0.073290    0.334862    0.000000
   323  O     s     0.784530    0.145509    0.517657    0.000000
   324  O     s     0.479435    0.186241    0.310955    0.000000
   325  O     s     0.881872    0.090974    0.437253    0.000000
   326  O     s     0.836473    0.153429    0.266071    0.000000
   327  O     s     0.583055    0.330835    0.567355    0.000000
   328  O     s     0.527214    0.462529    0.258000    0.000000
   329  O     s     0.773719    0.003959    0.462269    0.000000
   330  O     s     0.731250    0.381966    0.653174    0.000000
--------------------------------------------------------------------------------

  Final internal derivatives :

--------------------------------------------------------------------------------
   No.  Atomic          a             b             c           Radius
        Label          (eV)          (eV)          (eV)        (eV/Angs)
--------------------------------------------------------------------------------
      1 Si    c       0.000000      0.000000      0.000000      0.000000
      2 Si    c       0.000000      0.000000      0.000000      0.000000
      3 Si    c       0.000000      0.000000      0.000000      0.000000
      4 Si    c       0.000000      0.000000      0.000000      0.000000
      5 Si    c       0.000000      0.000000      0.000000      0.000000
      6 Si    c       0.000000      0.000000      0.000000      0.000000
      7 Si    c       0.000000      0.000000      0.000000      0.000000
      8 Si    c       0.000000      0.000000      0.000000      0.000000
      9 Si    c       0.000000      0.000000      0.000000      0.000000
     10 Si    c       0.000000      0.000000      0.000000      0.000000
     11 Si    c       0.000000      0.000000      0.000000      0.000000
     12 Si    c       0.000000      0.000000      0.000000      0.000000
     13 Si    c       0.000000      0.000000      0.000000      0.000000
     14 Si    c       0.000000      0.000000      0.000000      0.000000
     15 Si    c       0.000000      0.000000      0.000000      0.000000
     16 Si    c       0.000000      0.000000      0.000000      0.000000
     17 Si    c       0.000000      0.000000      0.000000      0.000000
     18 Si    c       0.000000      0.000000      0.000000      0.000000
     19 Si    c       0.000000      0.000000      0.000000      0.000000
     20 O     c       0.000000      0.000000      0.000000      0.000000
     21 O     c       0.000000      0.000000      0.000000      0.000000
     22 O     c       0.000000      0.000000      0.000000      0.000000
     23 O     c       0.000000      0.000000      0.000000      0.000000
     24 O     c       0.000000      0.000000      0.000000      0.000000
     25 O     c       0.000000      0.000000      0.000000      0.000000
     26 O     c       0.000000      0.000000      0.000000      0.000000
     27 O     c       0.000000      0.000000      0.000000      0.000000
     28 O     c       0.000000      0.000000      0.000000      0.000000
     29 O     c       0.000000      0.000000      0.000000      0.000000
     30 O     c       0.000000      0.000000      0.000000      0.000000
     31 O     c       0.000000      0.000000      0.000000      0.000000
     32 O     c       0.000000      0.000000      0.000000      0.000000
     33 O     c       0.000000      0.000000      0.000000      0.000000
     34 O     c       0.000000      0.000000      0.000000      0.000000
     35 O     c       0.000000      0.000000      0.000000      0.000000
     36 O     c       0.000000      0.000000      0.000000      0.000000
     37 O     c       0.000000      0.000000      0.000000      0.000000
     38 O     c       0.000000      0.000000      0.000000      0.000000
     39 O     c       0.000000      0.000000      0.000000      0.000000
     40 O     c       0.000000      0.000000      0.000000      0.000000
     41 O     c       0.000000      0.000000      0.000000      0.000000
     42 O     c       0.000000      0.000000      0.000000      0.000000
     43 O     c       0.000000      0.000000      0.000000      0.000000
     44 O     c       0.000000      0.000000      0.000000      0.000000
     45 O     c       0.000000      0.000000      0.000000      0.000000
     46 O     c       0.000000      0.000000      0.000000      0.000000
     47 O     c       0.000000      0.000000      0.000000      0.000000
     48 O     c       0.000000      0.000000      0.000000      0.000000
     49 O     c       0.000000      0.000000      0.000000      0.000000
     50 O     c       0.000000      0.000000      0.000000      0.000000
     51 O     c       0.000000      0.000000      0.000000      0.000000
     52 O     c       0.000000      0.000000      0.000000      0.000000
     53 Si    c       0.000000      0.000000      0.000000      0.000000
     54 Si    c       0.000000      0.000000      0.000000      0.000000
     55 Si    c       0.000000      0.000000      0.000000      0.000000
     56 Si    c       0.000000      0.000000      0.000000      0.000000
     57 Si    c       0.000000      0.000000      0.000000      0.000000
     58 Si    c       0.000000      0.000000      0.000000      0.000000
     59 Si    c       0.000000      0.000000      0.000000      0.000000
     60 Si    c       0.000000      0.000000      0.000000      0.000000
     61 Si    c       0.000000      0.000000      0.000000      0.000000
     62 Si    c       0.000000      0.000000      0.000000      0.000000
     63 Si    c       0.000000      0.000000      0.000000      0.000000
     64 Si    c       0.000000      0.000000      0.000000      0.000000
     65 Si    c       0.000000      0.000000      0.000000      0.000000
     66 Si    c       0.000000      0.000000      0.000000      0.000000
     67 O     c       0.000000      0.000000      0.000000      0.000000
     68 O     c       0.000000      0.000000      0.000000      0.000000
     69 O     c       0.000000      0.000000      0.000000      0.000000
     70 O     c       0.000000      0.000000      0.000000      0.000000
     71 O     c       0.000000      0.000000      0.000000      0.000000
     72 O     c       0.000000      0.000000      0.000000      0.000000
     73 O     c       0.000000      0.000000      0.000000      0.000000
     74 O     c       0.000000      0.000000      0.000000      0.000000
     75 O     c       0.000000      0.000000      0.000000      0.000000
     76 O     c       0.000000      0.000000      0.000000      0.000000
     77 O     c       0.000000      0.000000      0.000000      0.000000
     78 O     c       0.000000      0.000000      0.000000      0.000000
     79 O     c       0.000000      0.000000      0.000000      0.000000
     80 O     c       0.000000      0.000000      0.000000      0.000000
     81 O     c       0.000000      0.000000      0.000000      0.000000
     82 O     c       0.000000      0.000000      0.000000      0.000000
     83 O     c       0.000000      0.000000      0.000000      0.000000
     84 O     c       0.000000      0.000000      0.000000      0.000000
     85 O     c       0.000000      0.000000      0.000000      0.000000
     86 O     c       0.000000      0.000000      0.000000      0.000000
     87 O     c       0.000000      0.000000      0.000000      0.000000
     88 O     c       0.000000      0.000000      0.000000      0.000000
     89 O     c       0.000000      0.000000      0.000000      0.000000
     90 O     c       0.000000      0.000000      0.000000      0.000000
     91 O     c       0.000000      0.000000      0.000000      0.000000
     92 O     c       0.000000      0.000000      0.000000      0.000000
     93 O     c       0.000000      0.000000      0.000000      0.000000
     94 O     c       0.000000      0.000000      0.000000      0.000000
     95 O     c       0.000000      0.000000      0.000000      0.000000
     96 O     c       0.000000      0.000000      0.000000      0.000000
     97 O     c       0.000000      0.000000      0.000000      0.000000
     98 O     c       0.000000      0.000000      0.000000      0.000000
     99 O     c       0.000000      0.000000      0.000000      0.000000
    100 Si    c       0.000000      0.000000      0.000000      0.000000
    101 Si    c       0.000000      0.000000      0.000000      0.000000
    102 Si    c       0.000000      0.000000      0.000000      0.000000
    103 Si    c       0.000000      0.000000      0.000000      0.000000
    104 Si    c       0.000000      0.000000      0.000000      0.000000
    105 Si    c       0.000000      0.000000      0.000000      0.000000
    106 Si    c       0.000000      0.000000      0.000000      0.000000
    107 Si    c       0.000000      0.000000      0.000000      0.000000
    108 Si    c       0.000000      0.000000      0.000000      0.000000
    109 Si    c       0.000000      0.000000      0.000000      0.000000
    110 Si    c       0.000000      0.000000      0.000000      0.000000
    111 Si    c       0.000000      0.000000      0.000000      0.000000
    112 Si    c       0.000000      0.000000      0.000000      0.000000
    113 Si    c       0.000000      0.000000      0.000000      0.000000
    114 Si    c       0.000000      0.000000      0.000000      0.000000
    115 Si    c       0.000000      0.000000      0.000000      0.000000
    116 Si    c       0.000000      0.000000      0.000000      0.000000
    117 Si    c       0.000000      0.000000      0.000000      0.000000
    118 Si    c       0.000000      0.000000      0.000000      0.000000
    119 O     c       0.000000      0.000000      0.000000      0.000000
    120 O     c       0.000000      0.000000      0.000000      0.000000
    121 O     c       0.000000      0.000000      0.000000      0.000000
    122 O     c       0.000000      0.000000      0.000000      0.000000
    123 O     c       0.000000      0.000000      0.000000      0.000000
    124 O     c       0.000000      0.000000      0.000000      0.000000
    125 O     c       0.000000      0.000000      0.000000      0.000000
    126 O     c       0.000000      0.000000      0.000000      0.000000
    127 O     c       0.000000      0.000000      0.000000      0.000000
    128 O     c       0.000000      0.000000      0.000000      0.000000
    129 O     c       0.000000      0.000000      0.000000      0.000000
    130 O     c       0.000000      0.000000      0.000000      0.000000
    131 O     c       0.000000      0.000000      0.000000      0.000000
    132 O     c       0.000000      0.000000      0.000000      0.000000
    133 O     c       0.000000      0.000000      0.000000      0.000000
    134 O     c       0.000000      0.000000      0.000000      0.000000
    135 O     c       0.000000      0.000000      0.000000      0.000000
    136 O     c       0.000000      0.000000      0.000000      0.000000
    137 O     c       0.000000      0.000000      0.000000      0.000000
    138 O     c       0.000000      0.000000      0.000000      0.000000
    139 O     c       0.000000      0.000000      0.000000      0.000000
    140 O     c       0.000000      0.000000      0.000000      0.000000
    141 O     c       0.000000      0.000000      0.000000      0.000000
    142 O     c       0.000000      0.000000      0.000000      0.000000
    143 O     c       0.000000      0.000000      0.000000      0.000000
    144 O     c       0.000000      0.000000      0.000000      0.000000
    145 O     c       0.000000      0.000000      0.000000      0.000000
    146 O     c       0.000000      0.000000      0.000000      0.000000
    147 O     c       0.000000      0.000000      0.000000      0.000000
    148 O     c       0.000000      0.000000      0.000000      0.000000
    149 O     c       0.000000      0.000000      0.000000      0.000000
    150 O     c       0.000000      0.000000      0.000000      0.000000
    151 O     c       0.000000      0.000000      0.000000      0.000000
    152 Si    c       0.000000      0.000000      0.000000      0.000000
    153 Si    c       0.000000      0.000000      0.000000      0.000000
    154 Si    c       0.000000      0.000000      0.000000      0.000000
    155 Si    c       0.000000      0.000000      0.000000      0.000000
    156 Si    c       0.000000      0.000000      0.000000      0.000000
    157 Si    c       0.000000      0.000000      0.000000      0.000000
    158 Si    c       0.000000      0.000000      0.000000      0.000000
    159 Si    c       0.000000      0.000000      0.000000      0.000000
    160 Si    c       0.000000      0.000000      0.000000      0.000000
    161 Si    c       0.000000      0.000000      0.000000      0.000000
    162 Si    c       0.000000      0.000000      0.000000      0.000000
    163 Si    c       0.000000      0.000000      0.000000      0.000000
    164 Si    c       0.000000      0.000000      0.000000      0.000000
    165 Si    c       0.000000      0.000000      0.000000      0.000000
    166 O     c       0.000000      0.000000      0.000000      0.000000
    167 O     c       0.000000      0.000000      0.000000      0.000000
    168 O     c       0.000000      0.000000      0.000000      0.000000
    169 O     c       0.000000      0.000000      0.000000      0.000000
    170 O     c       0.000000      0.000000      0.000000      0.000000
    171 O     c       0.000000      0.000000      0.000000      0.000000
    172 O     c       0.000000      0.000000      0.000000      0.000000
    173 O     c       0.000000      0.000000      0.000000      0.000000
    174 O     c       0.000000      0.000000      0.000000      0.000000
    175 O     c       0.000000      0.000000      0.000000      0.000000
    176 O     c       0.000000      0.000000      0.000000      0.000000
    177 O     c       0.000000      0.000000      0.000000      0.000000
    178 O     c       0.000000      0.000000      0.000000      0.000000
    179 O     c       0.000000      0.000000      0.000000      0.000000
    180 O     c       0.000000      0.000000      0.000000      0.000000
    181 O     c       0.000000      0.000000      0.000000      0.000000
    182 O     c       0.000000      0.000000      0.000000      0.000000
    183 O     c       0.000000      0.000000      0.000000      0.000000
    184 O     c       0.000000      0.000000      0.000000      0.000000
    185 O     c       0.000000      0.000000      0.000000      0.000000
    186 O     c       0.000000      0.000000      0.000000      0.000000
    187 O     c       0.000000      0.000000      0.000000      0.000000
    188 O     c       0.000000      0.000000      0.000000      0.000000
    189 O     c       0.000000      0.000000      0.000000      0.000000
    190 O     c       0.000000      0.000000      0.000000      0.000000
    191 O     c       0.000000      0.000000      0.000000      0.000000
    192 O     c       0.000000      0.000000      0.000000      0.000000
    193 O     c       0.000000      0.000000      0.000000      0.000000
    194 O     c       0.000000      0.000000      0.000000      0.000000
    195 O     c       0.000000      0.000000      0.000000      0.000000
    196 O     c       0.000000      0.000000      0.000000      0.000000
    197 O     c       0.000000      0.000000      0.000000      0.000000
    198 O     c       0.000000      0.000000      0.000000      0.000000
    199 O     s       0.001721      0.001149     -0.002228      0.000000
    200 O     s       0.002063     -0.000188      0.000530      0.000000
    201 O     s      -0.000919     -0.001556     -0.001344      0.000000
    202 O     s       0.001920      0.000837     -0.002071      0.000000
    203 O     s      -0.000651      0.002043      0.001517      0.000000
    204 O     s      -0.000387     -0.003163      0.000603      0.000000
    205 O     s      -0.001133      0.002096      0.000345      0.000000
    206 O     s       0.003037     -0.000585     -0.000727      0.000000
    207 O     s      -0.003208     -0.000280      0.001626      0.000000
    208 O     s      -0.000429      0.003080      0.000715      0.000000
    209 O     s      -0.000855     -0.001734     -0.001172      0.000000
    210 O     s       0.000341      0.000371     -0.000842      0.000000
    211 O     s      -0.000625     -0.002054      0.001831      0.000000
    212 O     s      -0.001270     -0.001262      0.000862      0.000000
    213 O     s      -0.001976      0.000372     -0.001071      0.000000
    214 O     s       0.000924      0.001152      0.001100      0.000000
    215 O     s      -0.001493      0.001551     -0.000621      0.000000
    216 O     s      -0.000176     -0.000126     -0.000412      0.000000
    217 O     s       0.001122     -0.000898     -0.001949      0.000000
    218 O     s       0.001054      0.000810     -0.000441      0.000000
    219 O     s      -0.001432      0.001719      0.001369      0.000000
    220 O     s       0.001823     -0.001339      0.000254      0.000000
    221 O     s      -0.001211     -0.001263      0.001892      0.000000
    222 O     s       0.000620     -0.000958     -0.001467      0.000000
    223 O     s      -0.000733      0.000665      0.002380      0.000000
    224 O     s      -0.000647      0.000911     -0.001363      0.000000
    225 O     s       0.001401     -0.000348     -0.000985      0.000000
    226 O     s      -0.000582     -0.000989      0.000221      0.000000
    227 O     s      -0.002153     -0.000248      0.002457      0.000000
    228 O     s       0.000728     -0.001801      0.000229      0.000000
    229 O     s       0.000111      0.001955      0.001808      0.000000
    230 O     s       0.001356     -0.000182     -0.001615      0.000000
    231 O     s       0.000535      0.000489     -0.001598      0.000000
    232 O     s      -0.002009      0.000545      0.002304      0.000000
    233 O     s      -0.001827     -0.000539     -0.000670      0.000000
    234 O     s       0.000424     -0.001807      0.001424      0.000000
    235 O     s      -0.001483      0.001213      0.001976      0.000000
    236 O     s       0.000529      0.002086     -0.001562      0.000000
    237 O     s       0.000224     -0.003184     -0.000537      0.000000
    238 O     s       0.000566      0.001826      0.000307      0.000000
    239 O     s      -0.003180     -0.000274      0.000586      0.000000
    240 O     s       0.003087     -0.000259     -0.001606      0.000000
    241 O     s       0.000713      0.002988     -0.000652      0.000000
    242 O     s       0.000927     -0.001400      0.001032      0.000000
    243 O     s      -0.000010     -0.000016      0.000691      0.000000
    244 O     s       0.000208     -0.002177     -0.001662      0.000000
    245 O     s      -0.000480      0.000630      0.000183      0.000000
    246 O     s       0.001723      0.000508      0.001028      0.000000
    247 O     s      -0.000915      0.001110     -0.001327      0.000000
    248 O     s       0.001597      0.001516      0.000559      0.000000
    249 O     s       0.000297     -0.000352      0.000452      0.000000
    250 O     s      -0.001063     -0.000848      0.001710      0.000000
    251 O     s       0.000716      0.000427      0.000635      0.000000
    252 O     s       0.000992      0.001730     -0.001391      0.000000
    253 O     s      -0.001569     -0.001086     -0.000234      0.000000
    254 O     s       0.001240     -0.001290     -0.001860      0.000000
    255 O     s      -0.001168      0.000609      0.001069      0.000000
    256 O     s      -0.000568     -0.000498     -0.001334      0.000000
    257 O     s      -0.000770     -0.000589      0.002019      0.000000
    258 O     s      -0.002025     -0.001222      0.000810      0.000000
    259 O     s      -0.000093      0.000970      0.000600      0.000000
    260 O     s       0.002104     -0.000091     -0.002370      0.000000
    261 O     s       0.000714     -0.000488     -0.001121      0.000000
    262 O     s      -0.000519      0.001751     -0.001613      0.000000
    263 O     s       0.000261     -0.000660      0.000463      0.000000
    264 O     s       0.000499     -0.000563      0.001843      0.000000
    265 O     s       0.002009      0.000545     -0.002304      0.000000
    266 O     s       0.001827     -0.000539      0.000670      0.000000
    267 O     s      -0.000424     -0.001807     -0.001424      0.000000
    268 O     s       0.001483      0.001213     -0.001976      0.000000
    269 O     s      -0.000529      0.002086      0.001562      0.000000
    270 O     s      -0.000224     -0.003184      0.000537      0.000000
    271 O     s      -0.000566      0.001826     -0.000307      0.000000
    272 O     s       0.003180     -0.000274     -0.000586      0.000000
    273 O     s      -0.003087     -0.000259      0.001606      0.000000
    274 O     s      -0.000713      0.002988      0.000652      0.000000
    275 O     s      -0.000927     -0.001400     -0.001032      0.000000
    276 O     s       0.000010     -0.000016     -0.000691      0.000000
    277 O     s      -0.000208     -0.002177      0.001662      0.000000
    278 O     s       0.000480      0.000630     -0.000183      0.000000
    279 O     s      -0.001723      0.000508     -0.001028      0.000000
    280 O     s       0.000915      0.001110      0.001327      0.000000
    281 O     s      -0.001597      0.001516     -0.000559      0.000000
    282 O     s      -0.000297     -0.000352     -0.000452      0.000000
    283 O     s       0.001063     -0.000848     -0.001710      0.000000
    284 O     s      -0.000716      0.000427     -0.000635      0.000000
    285 O     s      -0.000992      0.001730      0.001391      0.000000
    286 O     s       0.001569     -0.001086      0.000234      0.000000
    287 O     s      -0.001240     -0.001290      0.001860      0.000000
    288 O     s       0.001168      0.000609     -0.001069      0.000000
    289 O     s       0.000568     -0.000498      0.001334      0.000000
    290 O     s       0.000770     -0.000589     -0.002019      0.000000
    291 O     s       0.002025     -0.001222     -0.000810      0.000000
    292 O     s       0.000093      0.000971     -0.000600      0.000000
    293 O     s      -0.002104     -0.000091      0.002370      0.000000
    294 O     s      -0.000714     -0.000488      0.001121      0.000000
    295 O     s       0.000519      0.001751      0.001613      0.000000
    296 O     s      -0.000261     -0.000660     -0.000463      0.000000
    297 O     s      -0.000499     -0.000563     -0.001843      0.000000
    298 O     s      -0.001721      0.001149      0.002228      0.000000
    299 O     s      -0.002063     -0.000188     -0.000530      0.000000
    300 O     s       0.000919     -0.001556      0.001344      0.000000
    301 O     s      -0.001920      0.000836      0.002071      0.000000
    302 O     s       0.000651      0.002043     -0.001517      0.000000
    303 O     s       0.000387     -0.003163     -0.000603      0.000000
    304 O     s       0.001133      0.002096     -0.000345      0.000000
    305 O     s      -0.003037     -0.000585      0.000727      0.000000
    306 O     s       0.003208     -0.000280     -0.001626      0.000000
    307 O     s       0.000429      0.003080     -0.000715      0.000000
    308 O     s       0.000855     -0.001734      0.001172      0.000000
    309 O     s      -0.000341      0.000371      0.000842      0.000000
    310 O     s       0.000625     -0.002054     -0.001831      0.000000
    311 O     s       0.001270     -0.001262     -0.000862      0.000000
    312 O     s       0.001976      0.000372      0.001071      0.000000
    313 O     s      -0.000924      0.001152     -0.001100      0.000000
    314 O     s       0.001493      0.001551      0.000621      0.000000
    315 O     s       0.000176     -0.000126      0.000412      0.000000
    316 O     s      -0.001122     -0.000898      0.001949      0.000000
    317 O     s      -0.001054      0.000810      0.000441      0.000000
    318 O     s       0.001432      0.001719     -0.001369      0.000000
    319 O     s      -0.001823     -0.001339     -0.000254      0.000000
    320 O     s       0.001211     -0.001263     -0.001892      0.000000
    321 O     s      -0.000620     -0.000958      0.001467      0.000000
    322 O     s       0.000733      0.000665     -0.002380      0.000000
    323 O     s       0.000647      0.000911      0.001363      0.000000
    324 O     s      -0.001401     -0.000348      0.000985      0.000000
    325 O     s       0.000582     -0.000989     -0.000221      0.000000
    326 O     s       0.002153     -0.000248     -0.002457      0.000000
    327 O     s      -0.000728     -0.001801     -0.000229      0.000000
    328 O     s      -0.000111      0.001955     -0.001808      0.000000
    329 O     s      -0.001356     -0.000182      0.001615      0.000000
    330 O     s      -0.000535      0.000489      0.001598      0.000000
--------------------------------------------------------------------------------
  Maximum abs         0.003208      0.003184      0.002457      0.000000
--------------------------------------------------------------------------------


  Time to end of optimisation =      13.9737 seconds


  Peak dynamic memory used =       7.27 MB 


  Timing analysis for GULP :

--------------------------------------------------------------------------------
  Task / Subroutine                                          Time (Seconds)
--------------------------------------------------------------------------------
  Calculation of reciprocal space energy and derivatives          3.1948
  Calculation of real space energy and derivatives                7.4042
  Calculation of three-body energy and derivatives                2.5892
  Calculation and manipulation of Hessian matrix                  0.7232
  Calculation of matrix inversion                                 0.0149
  Symmetry generation of equivalent positions                     0.0003
--------------------------------------------------------------------------------
  Total CPU time                                                 13.9738
--------------------------------------------------------------------------------


  Dump file written as ReferenceDataBase/COE-11.grs
  CIF file written as ReferenceDataBase/COE-11_opt.cif


  Job Finished at 11:43.59 20th February   2024                               

