********************************************************************************
*                       GENERAL UTILITY LATTICE PROGRAM                        *
*                                 Julian Gale                                  *
*                       Curtin Institute for Computation                       *
*                    School of Molecular and Life Sciences                     *
*                    Curtin University, Western Australia                      *
********************************************************************************
* Version = 6.1.2 * Last modified =   3rd November 2022                        *
********************************************************************************
*  optimise     - perform optimisation run                                     *
*  conp         - constant pressure calculation                                *
*  nosymmetry   - turn off symmetry after initial structure generation         *
********************************************************************************

  Job Started  at 00:49.52  6th February   2024                               

  Number of CPUs =     1


  Total number of configurations input =      1

********************************************************************************
*  Input for Configuration =   1 : ReferenceDataBase/ECNU-13b                  *
********************************************************************************

  Formula = O112Si56                                                    

  Number of irreducible atoms/shells =     280


  Total number atoms/shells =     280

  Dimensionality = 3               :  Bulk   



  Cartesian lattice vectors (Angstroms) :

       22.305800    0.000000    0.000000
        0.000000   12.461000    0.000000
        0.000000    0.000000   11.454200

  Cell parameters (Angstroms/Degrees):

  a =      22.3058    alpha =  90.0000
  b =      12.4610    beta  =  90.0000
  c =      11.4542    gamma =  90.0000

  Initial cell volume =        3183.724371 Angs**3

  Temperature of configuration =   0.00     K 

  Pressure of configuration =         0.000 GPa 

  Fractional coordinates of asymmetric unit :

--------------------------------------------------------------------------------
   No.  Atomic       x           y          z         Charge      Occupancy
        Label      (Frac)      (Frac)     (Frac)        (e)         (Frac)  
--------------------------------------------------------------------------------
      1 O     c    0.357513    0.321182    0.281497     0.86902    1.000000    
      2 O     c    0.344454 *  0.115482 *  0.304823 *   0.86902    1.000000    
      3 O     c    0.349112 *  0.202364 *  0.094627 *   0.86902    1.000000    
      4 O     c    0.444856 *  0.192398 *  0.218842 *   0.86902    1.000000    
      5 Si    c    0.312302 *  0.386667 *  0.363359 *   4.00000    1.000000    
      6 Si    c    0.373612 *  0.206723 *  0.226036 *   4.00000    1.000000    
      7 O     c    0.632085 *  0.703702 *  0.299951 *   0.86902    1.000000    
      8 O     c    0.640052 *  0.906643 *  0.344993 *   0.86902    1.000000    
      9 O     c    0.670182 *  0.836614 *  0.138746 *   0.86902    1.000000    
     10 O     c    0.557587 *  0.834674 *  0.198564 *   0.86902    1.000000    
     11 Si    c    0.674537 *  0.634420 *  0.383800 *   4.00000    1.000000    
     12 Si    c    0.624355 *  0.821460 *  0.245344 *   4.00000    1.000000    
     13 O     c    0.629649 *  0.321182 *  0.734472 *   0.86902    1.000000    
     14 O     c    0.642707 *  0.115481 *  0.711147 *   0.86902    1.000000    
     15 O     c    0.638049 *  0.202364 *  0.921343 *   0.86902    1.000000    
     16 O     c    0.542306 *  0.192397 *  0.797127 *   0.86902    1.000000    
     17 Si    c    0.674859 *  0.386667 *  0.652611 *   4.00000    1.000000    
     18 Si    c    0.613550 *  0.206723 *  0.789934 *   4.00000    1.000000    
     19 O     c    0.355076 *  0.703702 *  0.716019 *   0.86902    1.000000    
     20 O     c    0.347110 *  0.906643 *  0.670976 *   0.86902    1.000000    
     21 O     c    0.316979 *  0.836613 *  0.877224 *   0.86902    1.000000    
     22 O     c    0.429574 *  0.834673 *  0.817406 *   0.86902    1.000000    
     23 Si    c    0.312624 *  0.634420 *  0.632170 *   4.00000    1.000000    
     24 Si    c    0.362807 *  0.821460 *  0.770626 *   4.00000    1.000000    
     25 O     c    0.329608 *  0.366239 *  0.497733 *   0.86902    1.000000    
     26 O     c    0.657554 *  0.366239 *  0.518237 *   0.86902    1.000000    
     27 Si    c    0.311894 *  0.010918 *  0.351600 *   4.00000    1.000000    
     28 Si    c    0.674878 *  0.010918 *  0.388598 *   4.00000    1.000000    
     29 O     c    0.319937 *  0.510918 *  0.331124 *   0.86902    1.000000    
     30 O     c    0.663991 *  0.510918 *  0.350998 *   0.86902    1.000000    
     31 O     c    0.338369 *  0.010918 *  0.000823 *   0.86902    1.000000    
     32 Si    c    0.311900 *  0.132542 *  0.003791 *   4.00000    1.000000    
     33 Si    c    0.675261 *  0.132542 *  0.012178 *   4.00000    1.000000    
     34 O     c    0.314686 *  0.010917 *  0.489450 *   0.86902    1.000000    
     35 O     c    0.493581 *  0.167233 *  0.007985 *   0.86902    1.000000    
     36 O     c    0.496033 *  0.010918 *  0.162950 *   0.86902    1.000000    
     37 Si    c    0.497862 *  0.137935 *  0.144600 *   4.00000    1.000000    
     38 Si    c    0.497862 *  0.883900 *  0.144600 *   4.00000    1.000000    
     39 O     c    0.743581 *  0.667102 *  0.363346 *   0.86902    1.000000    
     40 O     c    0.743581 *  0.350231 *  0.674696 *   0.86902    1.000000    
     41 O     c    0.743581 *  0.671604 *  0.674697 *   0.86902    1.000000    
     42 O     c    0.743581 *  0.354733 *  0.363346 *   0.86902    1.000000    
     43 O     c    0.743581 *  0.010918 *  0.343322 *   0.86902    1.000000    
     44 O     c    0.743581 *  0.010917 *  0.709524 *   0.86902    1.000000    
     45 O     c    0.743581 *  0.130771 *  0.972134 *   0.86902    1.000000    
     46 O     c    0.743581 *  0.891064 *  0.972134 *   0.86902    1.000000    
     47 O     c    0.857513 *  0.700653 *  0.734472 *   0.86902    1.000000    
     48 O     c    0.844454 *  0.906354 *  0.711147 *   0.86902    1.000000    
     49 O     c    0.849112 *  0.819471 *  0.921343 *   0.86902    1.000000    
     50 O     c    0.944856 *  0.829438 *  0.797127 *   0.86902    1.000000    
     51 Si    c    0.812302 *  0.635168 *  0.652611 *   4.00000    1.000000    
     52 Si    c    0.873612 *  0.815112 *  0.789934 *   4.00000    1.000000    
     53 O     c    0.132085 *  0.318133 *  0.716019 *   0.86902    1.000000    
     54 O     c    0.140052 *  0.115192 *  0.670976 *   0.86902    1.000000    
     55 O     c    0.170182 *  0.185221 *  0.877224 *   0.86902    1.000000    
     56 O     c    0.057587 *  0.187162 *  0.817405 *   0.86902    1.000000    
     57 Si    c    0.174537 *  0.387415 *  0.632170 *   4.00000    1.000000    
     58 Si    c    0.124355 *  0.200375 *  0.770626 *   4.00000    1.000000    
     59 O     c    0.129649 *  0.700653 *  0.281498 *   0.86902    1.000000    
     60 O     c    0.142707 *  0.906354 *  0.304823 *   0.86902    1.000000    
     61 O     c    0.138049 *  0.819471 *  0.094627 *   0.86902    1.000000    
     62 O     c    0.042306 *  0.829438 *  0.218842 *   0.86902    1.000000    
     63 Si    c    0.174859 *  0.635168 *  0.363359 *   4.00000    1.000000    
     64 Si    c    0.113550 *  0.815112 *  0.226036 *   4.00000    1.000000    
     65 O     c    0.855077 *  0.318133 *  0.299951 *   0.86902    1.000000    
     66 O     c    0.847110 *  0.115192 *  0.344993 *   0.86902    1.000000    
     67 O     c    0.816980 *  0.185222 *  0.138746 *   0.86902    1.000000    
     68 O     c    0.929574 *  0.187162 *  0.198564 *   0.86902    1.000000    
     69 Si    c    0.812624 *  0.387415 *  0.383800 *   4.00000    1.000000    
     70 Si    c    0.862807 *  0.200375 *  0.245344 *   4.00000    1.000000    
     71 O     c    0.829608 *  0.655597 *  0.518237 *   0.86902    1.000000    
     72 O     c    0.157554 *  0.655597 *  0.497733 *   0.86902    1.000000    
     73 Si    c    0.811894 *  0.010918 *  0.664370 *   4.00000    1.000000    
     74 Si    c    0.174878 *  0.010918 *  0.627372 *   4.00000    1.000000    
     75 O     c    0.819937 *  0.510918 *  0.684845 *   0.86902    1.000000    
     76 O     c    0.163991 *  0.510918 *  0.664972 *   0.86902    1.000000    
     77 O     c    0.838369 *  0.010918 *  0.015147 *   0.86902    1.000000    
     78 Si    c    0.811900 *  0.889294 *  0.012178 *   4.00000    1.000000    
     79 Si    c    0.175261 *  0.889293 *  0.003791 *   4.00000    1.000000    
     80 O     c    0.814686 *  0.010918 *  0.526520 *   0.86902    1.000000    
     81 O     c    0.993581 *  0.854602 *  0.007985 *   0.86902    1.000000    
     82 O     c    0.996033 *  0.010918 *  0.853020 *   0.86902    1.000000    
     83 Si    c    0.997862 *  0.883900 *  0.871370 *   4.00000    1.000000    
     84 Si    c    0.997862 *  0.137935 *  0.871370 *   4.00000    1.000000    
     85 O     c    0.243581 *  0.354733 *  0.652624 *   0.86902    1.000000    
     86 O     c    0.243581 *  0.671604 *  0.341273 *   0.86902    1.000000    
     87 O     c    0.243581 *  0.350231 *  0.341273 *   0.86902    1.000000    
     88 O     c    0.243581 *  0.667102 *  0.652624 *   0.86902    1.000000    
     89 O     c    0.243581 *  0.010918 *  0.672648 *   0.86902    1.000000    
     90 O     c    0.243581 *  0.010918 *  0.306446 *   0.86902    1.000000    
     91 O     c    0.243581 *  0.891064 *  0.043836 *   0.86902    1.000000    
     92 O     c    0.243581 *  0.130771 *  0.043836 *   0.86902    1.000000    
     93 O     c    0.629649 *  0.700653 *  0.734472 *   0.86902    1.000000    
     94 O     c    0.642707 *  0.906354 *  0.711147 *   0.86902    1.000000    
     95 O     c    0.638049 *  0.819471 *  0.921343 *   0.86902    1.000000    
     96 O     c    0.542306 *  0.829438 *  0.797127 *   0.86902    1.000000    
     97 Si    c    0.674859 *  0.635168 *  0.652611 *   4.00000    1.000000    
     98 Si    c    0.613550 *  0.815112 *  0.789934 *   4.00000    1.000000    
     99 O     c    0.355076 *  0.318133 *  0.716019 *   0.86902    1.000000    
    100 O     c    0.347110 *  0.115192 *  0.670976 *   0.86902    1.000000    
    101 O     c    0.316980 *  0.185221 *  0.877224 *   0.86902    1.000000    
    102 O     c    0.429574 *  0.187162 *  0.817405 *   0.86902    1.000000    
    103 Si    c    0.312624 *  0.387415 *  0.632170 *   4.00000    1.000000    
    104 Si    c    0.362807 *  0.200375 *  0.770626 *   4.00000    1.000000    
    105 O     c    0.357513 *  0.700653 *  0.281498 *   0.86902    1.000000    
    106 O     c    0.344454 *  0.906354 *  0.304823 *   0.86902    1.000000    
    107 O     c    0.349112 *  0.819471 *  0.094627 *   0.86902    1.000000    
    108 O     c    0.444856 *  0.829438 *  0.218842 *   0.86902    1.000000    
    109 Si    c    0.312302 *  0.635168 *  0.363359 *   4.00000    1.000000    
    110 Si    c    0.373612 *  0.815112 *  0.226036 *   4.00000    1.000000    
    111 O     c    0.632085 *  0.318133 *  0.299951 *   0.86902    1.000000    
    112 O     c    0.640052 *  0.115192 *  0.344993 *   0.86902    1.000000    
    113 O     c    0.670182 *  0.185222 *  0.138746 *   0.86902    1.000000    
    114 O     c    0.557587 *  0.187162 *  0.198564 *   0.86902    1.000000    
    115 Si    c    0.674537 *  0.387415 *  0.383800 *   4.00000    1.000000    
    116 Si    c    0.624355 *  0.200375 *  0.245344 *   4.00000    1.000000    
    117 O     c    0.657554 *  0.655597 *  0.518237 *   0.86902    1.000000    
    118 O     c    0.329608 *  0.655597 *  0.497733 *   0.86902    1.000000    
    119 Si    c    0.675268 *  0.010918 *  0.664370 *   4.00000    1.000000    
    120 Si    c    0.312283 *  0.010918 *  0.627372 *   4.00000    1.000000    
    121 O     c    0.667225 *  0.510918 *  0.684845 *   0.86902    1.000000    
    122 O     c    0.323170 *  0.510918 *  0.664972 *   0.86902    1.000000    
    123 O     c    0.648793 *  0.010918 *  0.015147 *   0.86902    1.000000    
    124 Si    c    0.675261 *  0.889294 *  0.012178 *   4.00000    1.000000    
    125 Si    c    0.311900 *  0.889293 *  0.003791 *   4.00000    1.000000    
    126 O     c    0.672476 *  0.010918 *  0.526520 *   0.86902    1.000000    
    127 O     c    0.493581 *  0.854602 *  0.007985 *   0.86902    1.000000    
    128 O     c    0.491129 *  0.010918 *  0.853020 *   0.86902    1.000000    
    129 Si    c    0.489300 *  0.883900 *  0.871370 *   4.00000    1.000000    
    130 Si    c    0.489300 *  0.137935 *  0.871370 *   4.00000    1.000000    
    131 O     c    0.129649 *  0.321182 *  0.281497 *   0.86902    1.000000    
    132 O     c    0.142707 *  0.115482 *  0.304823 *   0.86902    1.000000    
    133 O     c    0.138049 *  0.202364 *  0.094627 *   0.86902    1.000000    
    134 O     c    0.042306 *  0.192398 *  0.218842 *   0.86902    1.000000    
    135 Si    c    0.174859 *  0.386667 *  0.363359 *   4.00000    1.000000    
    136 Si    c    0.113550 *  0.206723 *  0.226036 *   4.00000    1.000000    
    137 O     c    0.855077 *  0.703702 *  0.299951 *   0.86902    1.000000    
    138 O     c    0.847110 *  0.906643 *  0.344993 *   0.86902    1.000000    
    139 O     c    0.816980 *  0.836614 *  0.138746 *   0.86902    1.000000    
    140 O     c    0.929574 *  0.834674 *  0.198564 *   0.86902    1.000000    
    141 Si    c    0.812624 *  0.634420 *  0.383800 *   4.00000    1.000000    
    142 Si    c    0.862807 *  0.821460 *  0.245344 *   4.00000    1.000000    
    143 O     c    0.857513 *  0.321182 *  0.734472 *   0.86902    1.000000    
    144 O     c    0.844454 *  0.115481 *  0.711147 *   0.86902    1.000000    
    145 O     c    0.849112 *  0.202364 *  0.921343 *   0.86902    1.000000    
    146 O     c    0.944856 *  0.192397 *  0.797127 *   0.86902    1.000000    
    147 Si    c    0.812302 *  0.386667 *  0.652611 *   4.00000    1.000000    
    148 Si    c    0.873612 *  0.206723 *  0.789934 *   4.00000    1.000000    
    149 O     c    0.132085 *  0.703702 *  0.716019 *   0.86902    1.000000    
    150 O     c    0.140052 *  0.906643 *  0.670976 *   0.86902    1.000000    
    151 O     c    0.170182 *  0.836613 *  0.877224 *   0.86902    1.000000    
    152 O     c    0.057587 *  0.834673 *  0.817406 *   0.86902    1.000000    
    153 Si    c    0.174537 *  0.634420 *  0.632170 *   4.00000    1.000000    
    154 Si    c    0.124355 *  0.821460 *  0.770626 *   4.00000    1.000000    
    155 O     c    0.157554 *  0.366239 *  0.497733 *   0.86902    1.000000    
    156 O     c    0.829608 *  0.366239 *  0.518237 *   0.86902    1.000000    
    157 Si    c    0.175268 *  0.010918 *  0.351600 *   4.00000    1.000000    
    158 Si    c    0.812283 *  0.010918 *  0.388598 *   4.00000    1.000000    
    159 O     c    0.167225 *  0.510918 *  0.331124 *   0.86902    1.000000    
    160 O     c    0.823170 *  0.510918 *  0.350998 *   0.86902    1.000000    
    161 O     c    0.148793 *  0.010918 *  0.000823 *   0.86902    1.000000    
    162 Si    c    0.175261 *  0.132542 *  0.003791 *   4.00000    1.000000    
    163 Si    c    0.811900 *  0.132542 *  0.012178 *   4.00000    1.000000    
    164 O     c    0.172476 *  0.010917 *  0.489450 *   0.86902    1.000000    
    165 O     c    0.993581 *  0.167233 *  0.007985 *   0.86902    1.000000    
    166 O     c    0.991129 *  0.010918 *  0.162950 *   0.86902    1.000000    
    167 Si    c    0.989300 *  0.137935 *  0.144600 *   4.00000    1.000000    
    168 Si    c    0.989300 *  0.883900 *  0.144600 *   4.00000    1.000000    
    169 O     s    0.357513 *  0.321182 *  0.281497 *  -2.86902    1.000000    
    170 O     s    0.344454 *  0.115482 *  0.304823 *  -2.86902    1.000000    
    171 O     s    0.349112 *  0.202364 *  0.094627 *  -2.86902    1.000000    
    172 O     s    0.444856 *  0.192398 *  0.218842 *  -2.86902    1.000000    
    173 O     s    0.632085 *  0.703702 *  0.299951 *  -2.86902    1.000000    
    174 O     s    0.640052 *  0.906643 *  0.344993 *  -2.86902    1.000000    
    175 O     s    0.670182 *  0.836614 *  0.138746 *  -2.86902    1.000000    
    176 O     s    0.557587 *  0.834674 *  0.198564 *  -2.86902    1.000000    
    177 O     s    0.629649 *  0.321182 *  0.734472 *  -2.86902    1.000000    
    178 O     s    0.642707 *  0.115481 *  0.711147 *  -2.86902    1.000000    
    179 O     s    0.638049 *  0.202364 *  0.921343 *  -2.86902    1.000000    
    180 O     s    0.542306 *  0.192397 *  0.797127 *  -2.86902    1.000000    
    181 O     s    0.355076 *  0.703702 *  0.716019 *  -2.86902    1.000000    
    182 O     s    0.347110 *  0.906643 *  0.670976 *  -2.86902    1.000000    
    183 O     s    0.316979 *  0.836613 *  0.877224 *  -2.86902    1.000000    
    184 O     s    0.429574 *  0.834673 *  0.817406 *  -2.86902    1.000000    
    185 O     s    0.329608 *  0.366239 *  0.497733 *  -2.86902    1.000000    
    186 O     s    0.657554 *  0.366239 *  0.518237 *  -2.86902    1.000000    
    187 O     s    0.319937 *  0.510918 *  0.331124 *  -2.86902    1.000000    
    188 O     s    0.663991 *  0.510918 *  0.350998 *  -2.86902    1.000000    
    189 O     s    0.338369 *  0.010918 *  0.000823 *  -2.86902    1.000000    
    190 O     s    0.314686 *  0.010917 *  0.489450 *  -2.86902    1.000000    
    191 O     s    0.493581 *  0.167233 *  0.007985 *  -2.86902    1.000000    
    192 O     s    0.496033 *  0.010918 *  0.162950 *  -2.86902    1.000000    
    193 O     s    0.743581 *  0.667102 *  0.363346 *  -2.86902    1.000000    
    194 O     s    0.743581 *  0.350231 *  0.674696 *  -2.86902    1.000000    
    195 O     s    0.743581 *  0.671604 *  0.674697 *  -2.86902    1.000000    
    196 O     s    0.743581 *  0.354733 *  0.363346 *  -2.86902    1.000000    
    197 O     s    0.743581 *  0.010918 *  0.343322 *  -2.86902    1.000000    
    198 O     s    0.743581 *  0.010917 *  0.709524 *  -2.86902    1.000000    
    199 O     s    0.743581 *  0.130771 *  0.972134 *  -2.86902    1.000000    
    200 O     s    0.743581 *  0.891064 *  0.972134 *  -2.86902    1.000000    
    201 O     s    0.857513 *  0.700653 *  0.734472 *  -2.86902    1.000000    
    202 O     s    0.844454 *  0.906354 *  0.711147 *  -2.86902    1.000000    
    203 O     s    0.849112 *  0.819471 *  0.921343 *  -2.86902    1.000000    
    204 O     s    0.944856 *  0.829438 *  0.797127 *  -2.86902    1.000000    
    205 O     s    0.132085 *  0.318133 *  0.716019 *  -2.86902    1.000000    
    206 O     s    0.140052 *  0.115192 *  0.670976 *  -2.86902    1.000000    
    207 O     s    0.170182 *  0.185221 *  0.877224 *  -2.86902    1.000000    
    208 O     s    0.057587 *  0.187162 *  0.817405 *  -2.86902    1.000000    
    209 O     s    0.129649 *  0.700653 *  0.281498 *  -2.86902    1.000000    
    210 O     s    0.142707 *  0.906354 *  0.304823 *  -2.86902    1.000000    
    211 O     s    0.138049 *  0.819471 *  0.094627 *  -2.86902    1.000000    
    212 O     s    0.042306 *  0.829438 *  0.218842 *  -2.86902    1.000000    
    213 O     s    0.855077 *  0.318133 *  0.299951 *  -2.86902    1.000000    
    214 O     s    0.847110 *  0.115192 *  0.344993 *  -2.86902    1.000000    
    215 O     s    0.816980 *  0.185222 *  0.138746 *  -2.86902    1.000000    
    216 O     s    0.929574 *  0.187162 *  0.198564 *  -2.86902    1.000000    
    217 O     s    0.829608 *  0.655597 *  0.518237 *  -2.86902    1.000000    
    218 O     s    0.157554 *  0.655597 *  0.497733 *  -2.86902    1.000000    
    219 O     s    0.819937 *  0.510918 *  0.684845 *  -2.86902    1.000000    
    220 O     s    0.163991 *  0.510918 *  0.664972 *  -2.86902    1.000000    
    221 O     s    0.838369 *  0.010918 *  0.015147 *  -2.86902    1.000000    
    222 O     s    0.814686 *  0.010918 *  0.526520 *  -2.86902    1.000000    
    223 O     s    0.993581 *  0.854602 *  0.007985 *  -2.86902    1.000000    
    224 O     s    0.996033 *  0.010918 *  0.853020 *  -2.86902    1.000000    
    225 O     s    0.243581 *  0.354733 *  0.652624 *  -2.86902    1.000000    
    226 O     s    0.243581 *  0.671604 *  0.341273 *  -2.86902    1.000000    
    227 O     s    0.243581 *  0.350231 *  0.341273 *  -2.86902    1.000000    
    228 O     s    0.243581 *  0.667102 *  0.652624 *  -2.86902    1.000000    
    229 O     s    0.243581 *  0.010918 *  0.672648 *  -2.86902    1.000000    
    230 O     s    0.243581 *  0.010918 *  0.306446 *  -2.86902    1.000000    
    231 O     s    0.243581 *  0.891064 *  0.043836 *  -2.86902    1.000000    
    232 O     s    0.243581 *  0.130771 *  0.043836 *  -2.86902    1.000000    
    233 O     s    0.629649 *  0.700653 *  0.734472 *  -2.86902    1.000000    
    234 O     s    0.642707 *  0.906354 *  0.711147 *  -2.86902    1.000000    
    235 O     s    0.638049 *  0.819471 *  0.921343 *  -2.86902    1.000000    
    236 O     s    0.542306 *  0.829438 *  0.797127 *  -2.86902    1.000000    
    237 O     s    0.355076 *  0.318133 *  0.716019 *  -2.86902    1.000000    
    238 O     s    0.347110 *  0.115192 *  0.670976 *  -2.86902    1.000000    
    239 O     s    0.316980 *  0.185221 *  0.877224 *  -2.86902    1.000000    
    240 O     s    0.429574 *  0.187162 *  0.817405 *  -2.86902    1.000000    
    241 O     s    0.357513 *  0.700653 *  0.281498 *  -2.86902    1.000000    
    242 O     s    0.344454 *  0.906354 *  0.304823 *  -2.86902    1.000000    
    243 O     s    0.349112 *  0.819471 *  0.094627 *  -2.86902    1.000000    
    244 O     s    0.444856 *  0.829438 *  0.218842 *  -2.86902    1.000000    
    245 O     s    0.632085 *  0.318133 *  0.299951 *  -2.86902    1.000000    
    246 O     s    0.640052 *  0.115192 *  0.344993 *  -2.86902    1.000000    
    247 O     s    0.670182 *  0.185222 *  0.138746 *  -2.86902    1.000000    
    248 O     s    0.557587 *  0.187162 *  0.198564 *  -2.86902    1.000000    
    249 O     s    0.657554 *  0.655597 *  0.518237 *  -2.86902    1.000000    
    250 O     s    0.329608 *  0.655597 *  0.497733 *  -2.86902    1.000000    
    251 O     s    0.667225 *  0.510918 *  0.684845 *  -2.86902    1.000000    
    252 O     s    0.323170 *  0.510918 *  0.664972 *  -2.86902    1.000000    
    253 O     s    0.648793 *  0.010918 *  0.015147 *  -2.86902    1.000000    
    254 O     s    0.672476 *  0.010918 *  0.526520 *  -2.86902    1.000000    
    255 O     s    0.493581 *  0.854602 *  0.007985 *  -2.86902    1.000000    
    256 O     s    0.491129 *  0.010918 *  0.853020 *  -2.86902    1.000000    
    257 O     s    0.129649 *  0.321182 *  0.281497 *  -2.86902    1.000000    
    258 O     s    0.142707 *  0.115482 *  0.304823 *  -2.86902    1.000000    
    259 O     s    0.138049 *  0.202364 *  0.094627 *  -2.86902    1.000000    
    260 O     s    0.042306 *  0.192398 *  0.218842 *  -2.86902    1.000000    
    261 O     s    0.855077 *  0.703702 *  0.299951 *  -2.86902    1.000000    
    262 O     s    0.847110 *  0.906643 *  0.344993 *  -2.86902    1.000000    
    263 O     s    0.816980 *  0.836614 *  0.138746 *  -2.86902    1.000000    
    264 O     s    0.929574 *  0.834674 *  0.198564 *  -2.86902    1.000000    
    265 O     s    0.857513 *  0.321182 *  0.734472 *  -2.86902    1.000000    
    266 O     s    0.844454 *  0.115481 *  0.711147 *  -2.86902    1.000000    
    267 O     s    0.849112 *  0.202364 *  0.921343 *  -2.86902    1.000000    
    268 O     s    0.944856 *  0.192397 *  0.797127 *  -2.86902    1.000000    
    269 O     s    0.132085 *  0.703702 *  0.716019 *  -2.86902    1.000000    
    270 O     s    0.140052 *  0.906643 *  0.670976 *  -2.86902    1.000000    
    271 O     s    0.170182 *  0.836613 *  0.877224 *  -2.86902    1.000000    
    272 O     s    0.057587 *  0.834673 *  0.817406 *  -2.86902    1.000000    
    273 O     s    0.157554 *  0.366239 *  0.497733 *  -2.86902    1.000000    
    274 O     s    0.829608 *  0.366239 *  0.518237 *  -2.86902    1.000000    
    275 O     s    0.167225 *  0.510918 *  0.331124 *  -2.86902    1.000000    
    276 O     s    0.823170 *  0.510918 *  0.350998 *  -2.86902    1.000000    
    277 O     s    0.148793 *  0.010918 *  0.000823 *  -2.86902    1.000000    
    278 O     s    0.172476 *  0.010917 *  0.489450 *  -2.86902    1.000000    
    279 O     s    0.993581 *  0.167233 *  0.007985 *  -2.86902    1.000000    
    280 O     s    0.991129 *  0.010918 *  0.162950 *  -2.86902    1.000000    
--------------------------------------------------------------------------------



********************************************************************************
*  General input information                                                   *
********************************************************************************

  Species output for all configurations : 

--------------------------------------------------------------------------------
  Species    Type    Atomic    Atomic    Charge       Radii (Angs)     Library
                     Number     Mass       (e)     Cova   Ionic  VDW   Symbol
--------------------------------------------------------------------------------
    O        Core        8      16.00   0.869020   0.730  0.000  1.360 O        
    O        Shell       8       0.00  -2.869020   0.730  0.000  0.000 O        
    Si       Core       14      28.09   4.000000   1.200  0.000  2.100 Si       
--------------------------------------------------------------------------------


  Lattice summation method               =    Ewald          (3-D)
                                         =    Parry          (2-D)
                                         =    Saunders et al (1-D)
  Accuracy factor for lattice sums       =   12.000


  Analytic derivatives to be used

  Time limit = Infinity

  Maximum range for interatomic potentials =    100000.000000 Angstroms

  General interatomic potentials :

--------------------------------------------------------------------------------
Atom  Types   Potential      Parameter       Value         Units   Cutoffs(Ang)
  1     2                                                            Min /  Max 
--------------------------------------------------------------------------------
Si   c O    s Buckingham    Buckingham A     1283.9070    eV        0.000 10.000
                            Buckingham rho  0.32052000    Ang       
                            Buckingham C     10.661580    eV*Ang^6  
--------------------------------------------------------------------------------
O    s O    s Buckingham    Buckingham A     22764.000    eV        0.000 12.000
                            Buckingham rho  0.14900000    Ang       
                            Buckingham C     27.879000    eV*Ang^6  
--------------------------------------------------------------------------------
O    c O    s Spring (c-s)  Spring k 2       74.920000    eV*Ang^-2 0.000  1.100
                            Spring k 4       0.0000000    eV*Ang^-4 
--------------------------------------------------------------------------------

  General Three-body potentials :

--------------------------------------------------------------------------------
  Atoms       Potential      Parameter       Value         Units   Cutoffs(Ang)
  1 / 2 / 3                                                          Min /  Max 
--------------------------------------------------------------------------------
Si    core    Harmonic      Three-body cnst  2.0972400    eV*rad^-2 0.000  1.900
O     shel                  Three-body angl  109.47000    degrees   0.000  1.900
O     shel                  Three-body k4    0.0000000    eV*rad^-4 0.000  3.500
                            Three-body k3    0.0000000    eV*rad^-3 
--------------------------------------------------------------------------------
Si    core    Harmonic      Three-body cnst  2.0972400    eV*rad^-2 0.000  1.900
O     shel                  Three-body angl  109.47000    degrees   0.000  1.900
õ(    shel                  Three-body k4    0.0000000    eV*rad^-4 0.000  3.500
                            Three-body k3    0.0000000    eV*rad^-3 
--------------------------------------------------------------------------------
Si    core    Harmonic      Three-body cnst  2.0972400    eV*rad^-2 0.000  1.900
õ(    shel                  Three-body angl  109.47000    degrees   0.000  1.900
õ(    shel                  Three-body k4    0.0000000    eV*rad^-4 0.000  3.500
                            Three-body k3    0.0000000    eV*rad^-3 
--------------------------------------------------------------------------------

********************************************************************************
*  Output for configuration   1 : ReferenceDataBase/ECNU-13b                   *
********************************************************************************


  Components of energy : 

--------------------------------------------------------------------------------
  Interatomic potentials     =        1775.87944915 eV    
  Three-body potentials      =           0.24153041 eV    
  Monopole - monopole (real) =       -6802.06331612 eV    
  Monopole - monopole (recip)=       -2100.45380166 eV    
  Monopole - monopole (total)=       -8902.51711778 eV    
--------------------------------------------------------------------------------
  Total lattice energy       =       -7126.39613822 eV    
--------------------------------------------------------------------------------
  Total lattice energy       =         -687588.2904 kJ/(mole unit cells)
--------------------------------------------------------------------------------


  Number of variables =      843

  Maximum number of calculations  =           500
  Maximum Hessian update interval =            10
  Maximum step size               =   0.100000000
  Maximum parameter tolerance     =   0.000010000
  Maximum function  tolerance     =   0.000010000
  Maximum gradient  tolerance     =   0.001000000
  Maximum gradient  component     =   0.010000000

  Cell parameters to be optimised using strains

  Newton-Raphson optimiser to be used

  BFGS hessian update to be used

  Lower half triangular hessian to be used

  Minimiser to switch to RFO
  When gradient norm is less than     0.080000

  Switch max step size to       0.30000000 when gnorm is less than     0.005000

  Dumpfile to be written after every cycle

  Start of bulk optimisation :

  Cycle:      0 Energy:     -7126.396138  Gnorm:      3.528345  CPU:    0.666
  ** Hessian calculated **
  Cycle:      1 Energy:     -7174.177659  Gnorm:      2.078072  CPU:    1.751
  ** Hessian calculated **
  Cycle:      2 Energy:     -7198.024682  Gnorm:      0.408815  CPU:    3.359
  ** Hessian calculated **
  Cycle:      3 Energy:     -7198.802206  Gnorm:      0.204705  CPU:    4.673
  Cycle:      4 Energy:     -7198.999554  Gnorm:      0.102574  CPU:    5.324
  Cycle:      5 Energy:     -7199.050204  Gnorm:      0.051298  CPU:    5.976
  ** Hessian has required structure
  ** Hessian has required structure
  Cycle:      6 Energy:     -7199.063096  Gnorm:      0.025658  CPU:    9.251
  ** Hessian has required structure
  Cycle:      7 Energy:     -7199.066423  Gnorm:      0.012836  CPU:   10.968
  ** Hessian has required structure
  Cycle:      8 Energy:     -7199.067240  Gnorm:      0.006419  CPU:   12.686
  ** Hessian has required structure
  Cycle:      9 Energy:     -7199.067445  Gnorm:      0.003209  CPU:   14.413
  ** Hessian has required structure
  Cycle:     10 Energy:     -7199.067513  Gnorm:      0.000002  CPU:   16.040
  ** Hessian has required structure


  **** Optimisation achieved ****


  Final energy =   -7199.06751349 eV      
  Final Gnorm  =       0.00000163

  Components of energy : 

--------------------------------------------------------------------------------
  Interatomic potentials     =        1949.09556469 eV    
  Three-body potentials      =           0.93661743 eV    
  Monopole - monopole (real) =       -6171.46043833 eV    
  Monopole - monopole (recip)=       -2977.63925729 eV    
  Monopole - monopole (total)=       -9149.09969562 eV    
--------------------------------------------------------------------------------
  Total lattice energy       =       -7199.06751349 eV    
--------------------------------------------------------------------------------
  Total lattice energy       =         -694599.9672 kJ/(mole unit cells)
--------------------------------------------------------------------------------

  Final fractional coordinates of atoms :

--------------------------------------------------------------------------------
   No.  Atomic        x           y          z          Radius
        Label       (Frac)      (Frac)     (Frac)       (Angs) 
--------------------------------------------------------------------------------
     1  O     c     0.357513    0.321182    0.281497    0.000000
     2  O     c     0.344454    0.115482    0.304822    0.000000
     3  O     c     0.349112    0.202364    0.094627    0.000000
     4  O     c     0.444856    0.192397    0.218842    0.000000
     5  Si    c     0.312302    0.386667    0.363359    0.000000
     6  Si    c     0.373612    0.206723    0.226036    0.000000
     7  O     c     0.632085    0.703702    0.299950    0.000000
     8  O     c     0.640052    0.906643    0.344993    0.000000
     9  O     c     0.670182    0.836614    0.138746    0.000000
    10  O     c     0.557587    0.834673    0.198564    0.000000
    11  Si    c     0.674537    0.634420    0.383799    0.000000
    12  Si    c     0.624355    0.821460    0.245344    0.000000
    13  O     c     0.629649    0.321182    0.734472    0.000000
    14  O     c     0.642707    0.115482    0.711147    0.000000
    15  O     c     0.638049    0.202364    0.921342    0.000000
    16  O     c     0.542306    0.192398    0.797127    0.000000
    17  Si    c     0.674859    0.386667    0.652611    0.000000
    18  Si    c     0.613550    0.206723    0.789934    0.000000
    19  O     c     0.355077    0.703703    0.716019    0.000000
    20  O     c     0.347110    0.906643    0.670976    0.000000
    21  O     c     0.316980    0.836614    0.877224    0.000000
    22  O     c     0.429574    0.834673    0.817405    0.000000
    23  Si    c     0.312624    0.634420    0.632170    0.000000
    24  Si    c     0.362807    0.821460    0.770626    0.000000
    25  O     c     0.329608    0.366239    0.497732    0.000000
    26  O     c     0.657554    0.366239    0.518237    0.000000
    27  Si    c     0.311894    0.010918    0.351600    0.000000
    28  Si    c     0.674878    0.010918    0.388598    0.000000
    29  O     c     0.319937    0.510918    0.331124    0.000000
    30  O     c     0.663991    0.510918    0.350997    0.000000
    31  O     c     0.338369    0.010918    0.000823    0.000000
    32  Si    c     0.311900    0.132542    0.003791    0.000000
    33  Si    c     0.675261    0.132542    0.012178    0.000000
    34  O     c     0.314686    0.010918    0.489450    0.000000
    35  O     c     0.493581    0.167233    0.007985    0.000000
    36  O     c     0.496033    0.010918    0.162950    0.000000
    37  Si    c     0.497862    0.137935    0.144600    0.000000
    38  Si    c     0.497862    0.883900    0.144600    0.000000
    39  O     c     0.743581    0.667102    0.363346    0.000000
    40  O     c     0.743581    0.350231    0.674696    0.000000
    41  O     c     0.743581    0.671605    0.674696    0.000000
    42  O     c     0.743581    0.354733    0.363346    0.000000
    43  O     c     0.743581    0.010917    0.343322    0.000000
    44  O     c     0.743581    0.010918    0.709524    0.000000
    45  O     c     0.743581    0.130771    0.972134    0.000000
    46  O     c     0.743581    0.891064    0.972134    0.000000
    47  O     c     0.857513    0.700653    0.734472    0.000000
    48  O     c     0.844454    0.906354    0.711147    0.000000
    49  O     c     0.849112    0.819471    0.921342    0.000000
    50  O     c     0.944856    0.829438    0.797127    0.000000
    51  Si    c     0.812302    0.635168    0.652611    0.000000
    52  Si    c     0.873612    0.815112    0.789934    0.000000
    53  O     c     0.132085    0.318133    0.716019    0.000000
    54  O     c     0.140052    0.115192    0.670976    0.000000
    55  O     c     0.170182    0.185222    0.877224    0.000000
    56  O     c     0.057587    0.187162    0.817406    0.000000
    57  Si    c     0.174537    0.387415    0.632170    0.000000
    58  Si    c     0.124355    0.200375    0.770626    0.000000
    59  O     c     0.129649    0.700653    0.281497    0.000000
    60  O     c     0.142707    0.906354    0.304823    0.000000
    61  O     c     0.138049    0.819471    0.094627    0.000000
    62  O     c     0.042306    0.829438    0.218842    0.000000
    63  Si    c     0.174859    0.635168    0.363359    0.000000
    64  Si    c     0.113550    0.815112    0.226036    0.000000
    65  O     c     0.855077    0.318133    0.299950    0.000000
    66  O     c     0.847110    0.115192    0.344993    0.000000
    67  O     c     0.816980    0.185222    0.138746    0.000000
    68  O     c     0.929574    0.187162    0.198564    0.000000
    69  Si    c     0.812624    0.387415    0.383800    0.000000
    70  Si    c     0.862807    0.200375    0.245344    0.000000
    71  O     c     0.829608    0.655596    0.518237    0.000000
    72  O     c     0.157554    0.655596    0.497732    0.000000
    73  Si    c     0.811894    0.010918    0.664369    0.000000
    74  Si    c     0.174878    0.010918    0.627372    0.000000
    75  O     c     0.819937    0.510918    0.684845    0.000000
    76  O     c     0.163991    0.510918    0.664972    0.000000
    77  O     c     0.838369    0.010918    0.015147    0.000000
    78  Si    c     0.811900    0.889293    0.012178    0.000000
    79  Si    c     0.175261    0.889294    0.003791    0.000000
    80  O     c     0.814686    0.010917    0.526520    0.000000
    81  O     c     0.993581    0.854602    0.007985    0.000000
    82  O     c     0.996033    0.010918    0.853019    0.000000
    83  Si    c     0.997862    0.883900    0.871369    0.000000
    84  Si    c     0.997862    0.137935    0.871370    0.000000
    85  O     c     0.243581    0.354733    0.652623    0.000000
    86  O     c     0.243581    0.671605    0.341273    0.000000
    87  O     c     0.243581    0.350231    0.341273    0.000000
    88  O     c     0.243581    0.667102    0.652623    0.000000
    89  O     c     0.243581    0.010918    0.672647    0.000000
    90  O     c     0.243581    0.010917    0.306445    0.000000
    91  O     c     0.243581    0.891065    0.043836    0.000000
    92  O     c     0.243581    0.130771    0.043836    0.000000
    93  O     c     0.629649    0.700653    0.734472    0.000000
    94  O     c     0.642707    0.906354    0.711147    0.000000
    95  O     c     0.638049    0.819471    0.921342    0.000000
    96  O     c     0.542306    0.829438    0.797127    0.000000
    97  Si    c     0.674859    0.635168    0.652611    0.000000
    98  Si    c     0.613550    0.815112    0.789934    0.000000
    99  O     c     0.355077    0.318133    0.716019    0.000000
   100  O     c     0.347110    0.115192    0.670976    0.000000
   101  O     c     0.316979    0.185222    0.877224    0.000000
   102  O     c     0.429574    0.187162    0.817406    0.000000
   103  Si    c     0.312624    0.387415    0.632170    0.000000
   104  Si    c     0.362807    0.200375    0.770626    0.000000
   105  O     c     0.357513    0.700653    0.281497    0.000000
   106  O     c     0.344454    0.906354    0.304823    0.000000
   107  O     c     0.349112    0.819471    0.094627    0.000000
   108  O     c     0.444856    0.829438    0.218842    0.000000
   109  Si    c     0.312302    0.635168    0.363359    0.000000
   110  Si    c     0.373612    0.815112    0.226036    0.000000
   111  O     c     0.632085    0.318133    0.299950    0.000000
   112  O     c     0.640052    0.115192    0.344993    0.000000
   113  O     c     0.670182    0.185222    0.138746    0.000000
   114  O     c     0.557587    0.187162    0.198564    0.000000
   115  Si    c     0.674537    0.387415    0.383800    0.000000
   116  Si    c     0.624355    0.200375    0.245344    0.000000
   117  O     c     0.657554    0.655596    0.518237    0.000000
   118  O     c     0.329608    0.655596    0.497732    0.000000
   119  Si    c     0.675268    0.010918    0.664369    0.000000
   120  Si    c     0.312283    0.010918    0.627372    0.000000
   121  O     c     0.667225    0.510918    0.684845    0.000000
   122  O     c     0.323170    0.510918    0.664972    0.000000
   123  O     c     0.648792    0.010918    0.015147    0.000000
   124  Si    c     0.675261    0.889293    0.012178    0.000000
   125  Si    c     0.311900    0.889294    0.003791    0.000000
   126  O     c     0.672476    0.010917    0.526520    0.000000
   127  O     c     0.493581    0.854602    0.007985    0.000000
   128  O     c     0.491128    0.010918    0.853019    0.000000
   129  Si    c     0.489300    0.883900    0.871369    0.000000
   130  Si    c     0.489300    0.137935    0.871370    0.000000
   131  O     c     0.129649    0.321182    0.281497    0.000000
   132  O     c     0.142707    0.115482    0.304822    0.000000
   133  O     c     0.138049    0.202364    0.094627    0.000000
   134  O     c     0.042306    0.192397    0.218842    0.000000
   135  Si    c     0.174859    0.386667    0.363359    0.000000
   136  Si    c     0.113550    0.206723    0.226036    0.000000
   137  O     c     0.855077    0.703702    0.299950    0.000000
   138  O     c     0.847110    0.906643    0.344993    0.000000
   139  O     c     0.816979    0.836614    0.138746    0.000000
   140  O     c     0.929574    0.834673    0.198564    0.000000
   141  Si    c     0.812624    0.634420    0.383799    0.000000
   142  Si    c     0.862807    0.821460    0.245344    0.000000
   143  O     c     0.857513    0.321182    0.734472    0.000000
   144  O     c     0.844454    0.115482    0.711147    0.000000
   145  O     c     0.849112    0.202364    0.921342    0.000000
   146  O     c     0.944856    0.192398    0.797127    0.000000
   147  Si    c     0.812302    0.386667    0.652611    0.000000
   148  Si    c     0.873612    0.206723    0.789934    0.000000
   149  O     c     0.132085    0.703703    0.716019    0.000000
   150  O     c     0.140052    0.906643    0.670976    0.000000
   151  O     c     0.170182    0.836614    0.877224    0.000000
   152  O     c     0.057587    0.834673    0.817405    0.000000
   153  Si    c     0.174537    0.634420    0.632170    0.000000
   154  Si    c     0.124355    0.821460    0.770626    0.000000
   155  O     c     0.157554    0.366239    0.497732    0.000000
   156  O     c     0.829608    0.366239    0.518237    0.000000
   157  Si    c     0.175268    0.010918    0.351600    0.000000
   158  Si    c     0.812283    0.010918    0.388598    0.000000
   159  O     c     0.167225    0.510918    0.331124    0.000000
   160  O     c     0.823170    0.510918    0.350997    0.000000
   161  O     c     0.148792    0.010918    0.000823    0.000000
   162  Si    c     0.175261    0.132542    0.003791    0.000000
   163  Si    c     0.811900    0.132542    0.012178    0.000000
   164  O     c     0.172476    0.010918    0.489450    0.000000
   165  O     c     0.993581    0.167233    0.007985    0.000000
   166  O     c     0.991128    0.010918    0.162950    0.000000
   167  Si    c     0.989300    0.137935    0.144600    0.000000
   168  Si    c     0.989300    0.883900    0.144600    0.000000
   169  O     s     0.354202    0.315662    0.284539    0.000000
   170  O     s     0.343967    0.113725    0.301159    0.000000
   171  O     s     0.347546    0.194706    0.098739    0.000000
   172  O     s     0.442667    0.187985    0.211427    0.000000
   173  O     s     0.636005    0.709062    0.303338    0.000000
   174  O     s     0.642281    0.908908    0.338665    0.000000
   175  O     s     0.665659    0.840994    0.136151    0.000000
   176  O     s     0.558449    0.838919    0.197655    0.000000
   177  O     s     0.632959    0.315662    0.731430    0.000000
   178  O     s     0.643194    0.113725    0.714810    0.000000
   179  O     s     0.639615    0.194705    0.917230    0.000000
   180  O     s     0.544495    0.187986    0.804543    0.000000
   181  O     s     0.351157    0.709063    0.712631    0.000000
   182  O     s     0.344881    0.908908    0.677304    0.000000
   183  O     s     0.321503    0.840994    0.879819    0.000000
   184  O     s     0.428713    0.838919    0.818314    0.000000
   185  O     s     0.325828    0.370834    0.497720    0.000000
   186  O     s     0.661334    0.370834    0.518250    0.000000
   187  O     s     0.318176    0.510918    0.338448    0.000000
   188  O     s     0.666389    0.510918    0.358442    0.000000
   189  O     s     0.333069    0.010918    0.001394    0.000000
   190  O     s     0.313991    0.010918    0.489429    0.000000
   191  O     s     0.493581    0.160760    0.007985    0.000000
   192  O     s     0.496444    0.010918    0.158673    0.000000
   193  O     s     0.743581    0.660098    0.367790    0.000000
   194  O     s     0.743581    0.357851    0.670063    0.000000
   195  O     s     0.743581    0.663985    0.670063    0.000000
   196  O     s     0.743581    0.361738    0.367790    0.000000
   197  O     s     0.743581    0.010917    0.352861    0.000000
   198  O     s     0.743581    0.010918    0.699687    0.000000
   199  O     s     0.743581    0.131098    0.981391    0.000000
   200  O     s     0.743581    0.890737    0.981391    0.000000
   201  O     s     0.854202    0.706173    0.731430    0.000000
   202  O     s     0.843967    0.908110    0.714810    0.000000
   203  O     s     0.847546    0.827130    0.917230    0.000000
   204  O     s     0.942667    0.833850    0.804543    0.000000
   205  O     s     0.136005    0.312773    0.712631    0.000000
   206  O     s     0.142281    0.112928    0.677304    0.000000
   207  O     s     0.165659    0.180841    0.879819    0.000000
   208  O     s     0.058449    0.182916    0.818314    0.000000
   209  O     s     0.132959    0.706173    0.284539    0.000000
   210  O     s     0.143194    0.908110    0.301160    0.000000
   211  O     s     0.139615    0.827130    0.098739    0.000000
   212  O     s     0.044495    0.833850    0.211427    0.000000
   213  O     s     0.851157    0.312773    0.303338    0.000000
   214  O     s     0.844881    0.112927    0.338665    0.000000
   215  O     s     0.821503    0.180841    0.136151    0.000000
   216  O     s     0.928713    0.182916    0.197655    0.000000
   217  O     s     0.825828    0.651002    0.518250    0.000000
   218  O     s     0.161334    0.651002    0.497720    0.000000
   219  O     s     0.818176    0.510918    0.677522    0.000000
   220  O     s     0.166389    0.510918    0.657528    0.000000
   221  O     s     0.833069    0.010918    0.014575    0.000000
   222  O     s     0.813991    0.010917    0.526540    0.000000
   223  O     s     0.993581    0.861076    0.007985    0.000000
   224  O     s     0.996444    0.010918    0.857296    0.000000
   225  O     s     0.243581    0.361738    0.648180    0.000000
   226  O     s     0.243581    0.663985    0.345906    0.000000
   227  O     s     0.243581    0.357850    0.345906    0.000000
   228  O     s     0.243581    0.660098    0.648180    0.000000
   229  O     s     0.243581    0.010918    0.663108    0.000000
   230  O     s     0.243581    0.010917    0.316283    0.000000
   231  O     s     0.243581    0.890737    0.034578    0.000000
   232  O     s     0.243581    0.131098    0.034579    0.000000
   233  O     s     0.632959    0.706173    0.731430    0.000000
   234  O     s     0.643195    0.908110    0.714810    0.000000
   235  O     s     0.639615    0.827130    0.917230    0.000000
   236  O     s     0.544495    0.833850    0.804543    0.000000
   237  O     s     0.351157    0.312773    0.712631    0.000000
   238  O     s     0.344881    0.112928    0.677304    0.000000
   239  O     s     0.321503    0.180841    0.879819    0.000000
   240  O     s     0.428713    0.182916    0.818314    0.000000
   241  O     s     0.354202    0.706173    0.284539    0.000000
   242  O     s     0.343967    0.908110    0.301160    0.000000
   243  O     s     0.347546    0.827130    0.098739    0.000000
   244  O     s     0.442667    0.833850    0.211427    0.000000
   245  O     s     0.636005    0.312773    0.303338    0.000000
   246  O     s     0.642281    0.112927    0.338665    0.000000
   247  O     s     0.665659    0.180841    0.136151    0.000000
   248  O     s     0.558449    0.182916    0.197655    0.000000
   249  O     s     0.661334    0.651002    0.518250    0.000000
   250  O     s     0.325828    0.651002    0.497720    0.000000
   251  O     s     0.668986    0.510918    0.677522    0.000000
   252  O     s     0.320773    0.510918    0.657528    0.000000
   253  O     s     0.654093    0.010918    0.014575    0.000000
   254  O     s     0.673171    0.010917    0.526540    0.000000
   255  O     s     0.493581    0.861076    0.007985    0.000000
   256  O     s     0.490718    0.010918    0.857296    0.000000
   257  O     s     0.132959    0.315662    0.284539    0.000000
   258  O     s     0.143195    0.113725    0.301159    0.000000
   259  O     s     0.139615    0.194706    0.098739    0.000000
   260  O     s     0.044495    0.187985    0.211427    0.000000
   261  O     s     0.851157    0.709062    0.303338    0.000000
   262  O     s     0.844881    0.908908    0.338665    0.000000
   263  O     s     0.821503    0.840994    0.136151    0.000000
   264  O     s     0.928713    0.838919    0.197655    0.000000
   265  O     s     0.854202    0.315662    0.731430    0.000000
   266  O     s     0.843967    0.113725    0.714810    0.000000
   267  O     s     0.847546    0.194705    0.917230    0.000000
   268  O     s     0.942667    0.187985    0.804543    0.000000
   269  O     s     0.136005    0.709063    0.712631    0.000000
   270  O     s     0.142281    0.908908    0.677304    0.000000
   271  O     s     0.165659    0.840994    0.879819    0.000000
   272  O     s     0.058449    0.838919    0.818314    0.000000
   273  O     s     0.161334    0.370834    0.497720    0.000000
   274  O     s     0.825828    0.370834    0.518250    0.000000
   275  O     s     0.168986    0.510918    0.338448    0.000000
   276  O     s     0.820773    0.510918    0.358442    0.000000
   277  O     s     0.154093    0.010918    0.001394    0.000000
   278  O     s     0.173171    0.010918    0.489429    0.000000
   279  O     s     0.993581    0.160760    0.007985    0.000000
   280  O     s     0.990718    0.010918    0.158673    0.000000
--------------------------------------------------------------------------------

  Final Cartesian lattice vectors (Angstroms) :

       22.305772    0.000000   -0.000000
        0.000000   12.461020   -0.000000
       -0.000000   -0.000000   11.454223


  Final cell parameters and derivatives :

--------------------------------------------------------------------------------
       a           22.305772 Angstrom     dE/de1(xx)     0.000307 eV/strain
       b           12.461020 Angstrom     dE/de2(yy)     0.000259 eV/strain
       c           11.454223 Angstrom     dE/de3(zz)     0.000284 eV/strain
       alpha       90.000000 Degrees      dE/de4(yz)    -0.000000 eV/strain
       beta        90.000000 Degrees      dE/de5(xz)    -0.000000 eV/strain
       gamma       90.000000 Degrees      dE/de6(xy)    -0.000000 eV/strain
--------------------------------------------------------------------------------

  Primitive cell volume =          3183.731913 Angs**3

  Density of cell =      1.755132 g/cm**3

  Non-primitive cell volume =          3183.731913 Angs**3


  Final internal derivatives :

--------------------------------------------------------------------------------
   No.  Atomic          a             b             c           Radius
        Label          (eV)          (eV)          (eV)        (eV/Angs)
--------------------------------------------------------------------------------
      1 O     c       0.000000      0.000000      0.000000      0.000000
      2 O     c       0.000020      0.000017      0.000014      0.000000
      3 O     c       0.000040      0.000049     -0.000006      0.000000
      4 O     c       0.000042      0.000027      0.000033      0.000000
      5 Si    c       0.000086      0.000016     -0.000038      0.000000
      6 Si    c       0.000040      0.000040      0.000013      0.000000
      7 O     c      -0.000078     -0.000026     -0.000012      0.000000
      8 O     c      -0.000041     -0.000007      0.000032      0.000000
      9 O     c       0.000072     -0.000023      0.000012      0.000000
     10 O     c       0.000007     -0.000052      0.000012      0.000000
     11 Si    c      -0.000116      0.000010     -0.000044      0.000000
     12 Si    c      -0.000017     -0.000039      0.000011      0.000000
     13 O     c      -0.000078      0.000015      0.000017      0.000000
     14 O     c      -0.000015      0.000013     -0.000015      0.000000
     15 O     c      -0.000042      0.000050      0.000005      0.000000
     16 O     c      -0.000044      0.000026     -0.000033      0.000000
     17 Si    c      -0.000088      0.000015      0.000040      0.000000
     18 Si    c      -0.000039      0.000040     -0.000015      0.000000
     19 O     c       0.000078     -0.000026      0.000012      0.000000
     20 O     c       0.000042     -0.000008     -0.000031      0.000000
     21 O     c      -0.000072     -0.000023     -0.000012      0.000000
     22 O     c      -0.000007     -0.000051     -0.000013      0.000000
     23 Si    c       0.000116      0.000010      0.000046      0.000000
     24 Si    c       0.000019     -0.000039     -0.000012      0.000000
     25 O     c       0.000134     -0.000047     -0.000011      0.000000
     26 O     c      -0.000134     -0.000047      0.000013      0.000000
     27 Si    c       0.000038     -0.000003      0.000005      0.000000
     28 Si    c      -0.000050      0.000001      0.000004      0.000000
     29 O     c       0.000049      0.000001     -0.000045      0.000000
     30 O     c      -0.000079      0.000001     -0.000047      0.000000
     31 O     c       0.000105      0.000000     -0.000004      0.000000
     32 Si    c       0.000070      0.000028     -0.000024      0.000000
     33 Si    c      -0.000068      0.000028      0.000022      0.000000
     34 O     c       0.000046      0.000001      0.000001      0.000000
     35 O     c       0.000000      0.000048      0.000001      0.000000
     36 O     c       0.000004      0.000002      0.000041      0.000000
     37 Si    c      -0.000021      0.000056      0.000019      0.000000
     38 Si    c      -0.000025     -0.000055      0.000021      0.000000
     39 O     c      -0.000000      0.000056     -0.000046      0.000000
     40 O     c       0.000000     -0.000050      0.000040      0.000000
     41 O     c      -0.000000      0.000050      0.000040      0.000000
     42 O     c       0.000000     -0.000057     -0.000046      0.000000
     43 O     c       0.000000      0.000000     -0.000045      0.000000
     44 O     c      -0.000000     -0.000001      0.000051      0.000000
     45 O     c      -0.000000      0.000009     -0.000058      0.000000
     46 O     c      -0.000000     -0.000008     -0.000058      0.000000
     47 O     c       0.000078     -0.000015      0.000017      0.000000
     48 O     c       0.000019     -0.000016     -0.000014      0.000000
     49 O     c       0.000040     -0.000049      0.000006      0.000000
     50 O     c       0.000043     -0.000026     -0.000033      0.000000
     51 Si    c       0.000087     -0.000016      0.000040      0.000000
     52 Si    c       0.000040     -0.000039     -0.000014      0.000000
     53 O     c      -0.000078      0.000026      0.000012      0.000000
     54 O     c      -0.000041      0.000007     -0.000031      0.000000
     55 O     c       0.000072      0.000023     -0.000012      0.000000
     56 O     c       0.000008      0.000052     -0.000012      0.000000
     57 Si    c      -0.000116     -0.000012      0.000045      0.000000
     58 Si    c      -0.000017      0.000039     -0.000012      0.000000
     59 O     c      -0.000078     -0.000015     -0.000017      0.000000
     60 O     c      -0.000014     -0.000012      0.000016      0.000000
     61 O     c      -0.000042     -0.000050     -0.000006      0.000000
     62 O     c      -0.000044     -0.000026      0.000032      0.000000
     63 Si    c      -0.000089     -0.000016     -0.000038      0.000000
     64 Si    c      -0.000040     -0.000040      0.000015      0.000000
     65 O     c       0.000078      0.000026     -0.000012      0.000000
     66 O     c       0.000042      0.000008      0.000031      0.000000
     67 O     c      -0.000073      0.000024      0.000012      0.000000
     68 O     c      -0.000007      0.000051      0.000012      0.000000
     69 Si    c       0.000116     -0.000011     -0.000045      0.000000
     70 Si    c       0.000018      0.000040      0.000012      0.000000
     71 O     c       0.000134      0.000047      0.000012      0.000000
     72 O     c      -0.000135      0.000047     -0.000014      0.000000
     73 Si    c       0.000038      0.000004     -0.000003      0.000000
     74 Si    c      -0.000050      0.000000     -0.000002      0.000000
     75 O     c       0.000049     -0.000001      0.000045      0.000000
     76 O     c      -0.000079     -0.000001      0.000048      0.000000
     77 O     c       0.000105      0.000000      0.000003      0.000000
     78 Si    c       0.000070     -0.000027      0.000021      0.000000
     79 Si    c      -0.000069     -0.000027     -0.000025      0.000000
     80 O     c       0.000046     -0.000000     -0.000000      0.000000
     81 O     c       0.000000     -0.000048     -0.000002      0.000000
     82 O     c       0.000004     -0.000001     -0.000042      0.000000
     83 Si    c      -0.000021     -0.000055     -0.000022      0.000000
     84 Si    c      -0.000025      0.000056     -0.000023      0.000000
     85 O     c      -0.000000     -0.000056      0.000046      0.000000
     86 O     c      -0.000000      0.000050     -0.000040      0.000000
     87 O     c       0.000000     -0.000050     -0.000039      0.000000
     88 O     c      -0.000000      0.000057      0.000047      0.000000
     89 O     c      -0.000000     -0.000000      0.000045      0.000000
     90 O     c       0.000000      0.000001     -0.000051      0.000000
     91 O     c      -0.000000     -0.000008      0.000057      0.000000
     92 O     c       0.000000      0.000008      0.000057      0.000000
     93 O     c      -0.000078     -0.000015      0.000017      0.000000
     94 O     c      -0.000019     -0.000016     -0.000014      0.000000
     95 O     c      -0.000040     -0.000049      0.000006      0.000000
     96 O     c      -0.000042     -0.000026     -0.000033      0.000000
     97 Si    c      -0.000087     -0.000016      0.000040      0.000000
     98 Si    c      -0.000040     -0.000039     -0.000014      0.000000
     99 O     c       0.000078      0.000026      0.000012      0.000000
    100 O     c       0.000041      0.000007     -0.000031      0.000000
    101 O     c      -0.000072      0.000023     -0.000012      0.000000
    102 O     c      -0.000008      0.000052     -0.000012      0.000000
    103 Si    c       0.000116     -0.000012      0.000045      0.000000
    104 Si    c       0.000017      0.000039     -0.000012      0.000000
    105 O     c       0.000078     -0.000015     -0.000017      0.000000
    106 O     c       0.000015     -0.000012      0.000016      0.000000
    107 O     c       0.000042     -0.000050     -0.000006      0.000000
    108 O     c       0.000045     -0.000026      0.000032      0.000000
    109 Si    c       0.000088     -0.000016     -0.000038      0.000000
    110 Si    c       0.000040     -0.000040      0.000015      0.000000
    111 O     c      -0.000078      0.000026     -0.000012      0.000000
    112 O     c      -0.000042      0.000008      0.000031      0.000000
    113 O     c       0.000073      0.000024      0.000012      0.000000
    114 O     c       0.000007      0.000051      0.000012      0.000000
    115 Si    c      -0.000116     -0.000011     -0.000045      0.000000
    116 Si    c      -0.000018      0.000040      0.000012      0.000000
    117 O     c      -0.000134      0.000047      0.000012      0.000000
    118 O     c       0.000135      0.000047     -0.000014      0.000000
    119 Si    c      -0.000038      0.000004     -0.000003      0.000000
    120 Si    c       0.000050      0.000000     -0.000002      0.000000
    121 O     c      -0.000049     -0.000001      0.000045      0.000000
    122 O     c       0.000079     -0.000002      0.000048      0.000000
    123 O     c      -0.000105      0.000000      0.000003      0.000000
    124 Si    c      -0.000070     -0.000027      0.000021      0.000000
    125 Si    c       0.000069     -0.000027     -0.000025      0.000000
    126 O     c      -0.000046     -0.000000     -0.000000      0.000000
    127 O     c      -0.000000     -0.000048     -0.000002      0.000000
    128 O     c      -0.000004     -0.000001     -0.000042      0.000000
    129 Si    c       0.000021     -0.000055     -0.000022      0.000000
    130 Si    c       0.000025      0.000056     -0.000023      0.000000
    131 O     c      -0.000078      0.000015     -0.000017      0.000000
    132 O     c      -0.000020      0.000017      0.000014      0.000000
    133 O     c      -0.000040      0.000049     -0.000006      0.000000
    134 O     c      -0.000042      0.000027      0.000033      0.000000
    135 Si    c      -0.000087      0.000015     -0.000038      0.000000
    136 Si    c      -0.000040      0.000040      0.000013      0.000000
    137 O     c       0.000078     -0.000026     -0.000012      0.000000
    138 O     c       0.000041     -0.000007      0.000032      0.000000
    139 O     c      -0.000072     -0.000023      0.000012      0.000000
    140 O     c      -0.000007     -0.000052      0.000012      0.000000
    141 Si    c       0.000116      0.000010     -0.000044      0.000000
    142 Si    c       0.000018     -0.000039      0.000012      0.000000
    143 O     c       0.000078      0.000014      0.000018      0.000000
    144 O     c       0.000015      0.000013     -0.000015      0.000000
    145 O     c       0.000042      0.000050      0.000005      0.000000
    146 O     c       0.000044      0.000026     -0.000033      0.000000
    147 Si    c       0.000088      0.000015      0.000040      0.000000
    148 Si    c       0.000040      0.000040     -0.000015      0.000000
    149 O     c      -0.000078     -0.000026      0.000012      0.000000
    150 O     c      -0.000042     -0.000008     -0.000031      0.000000
    151 O     c       0.000072     -0.000023     -0.000012      0.000000
    152 O     c       0.000006     -0.000051     -0.000013      0.000000
    153 Si    c      -0.000116      0.000010      0.000046      0.000000
    154 Si    c      -0.000018     -0.000039     -0.000012      0.000000
    155 O     c      -0.000134     -0.000047     -0.000011      0.000000
    156 O     c       0.000134     -0.000047      0.000013      0.000000
    157 Si    c      -0.000038     -0.000003      0.000005      0.000000
    158 Si    c       0.000050      0.000001      0.000004      0.000000
    159 O     c      -0.000049      0.000001     -0.000045      0.000000
    160 O     c       0.000079      0.000000     -0.000047      0.000000
    161 O     c      -0.000105      0.000000     -0.000004      0.000000
    162 Si    c      -0.000070      0.000028     -0.000024      0.000000
    163 Si    c       0.000068      0.000028      0.000022      0.000000
    164 O     c      -0.000046      0.000001      0.000001      0.000000
    165 O     c      -0.000000      0.000048      0.000001      0.000000
    166 O     c      -0.000004      0.000002      0.000041      0.000000
    167 Si    c       0.000021      0.000056      0.000020      0.000000
    168 Si    c       0.000024     -0.000055      0.000021      0.000000
    169 O     s      -0.000100     -0.000048     -0.000000      0.000000
    170 O     s      -0.000027     -0.000019     -0.000032      0.000000
    171 O     s      -0.000034     -0.000059      0.000023      0.000000
    172 O     s      -0.000089     -0.000040     -0.000044      0.000000
    173 O     s       0.000106      0.000047     -0.000000      0.000000
    174 O     s       0.000071      0.000026     -0.000039      0.000000
    175 O     s      -0.000095      0.000033     -0.000010      0.000000
    176 O     s       0.000051      0.000041     -0.000020      0.000000
    177 O     s       0.000100     -0.000047     -0.000001      0.000000
    178 O     s       0.000023     -0.000017      0.000031      0.000000
    179 O     s       0.000036     -0.000060     -0.000020      0.000000
    180 O     s       0.000090     -0.000039      0.000044      0.000000
    181 O     s      -0.000104      0.000048      0.000000      0.000000
    182 O     s      -0.000072      0.000025      0.000039      0.000000
    183 O     s       0.000098      0.000033      0.000012      0.000000
    184 O     s      -0.000051      0.000042      0.000021      0.000000
    185 O     s      -0.000048      0.000034     -0.000001      0.000000
    186 O     s       0.000047      0.000034      0.000000      0.000000
    187 O     s      -0.000060      0.000000      0.000005      0.000000
    188 O     s       0.000077      0.000001     -0.000008      0.000000
    189 O     s      -0.000064     -0.000000     -0.000001      0.000000
    190 O     s      -0.000078     -0.000000      0.000006      0.000000
    191 O     s      -0.000000     -0.000064      0.000002      0.000000
    192 O     s       0.000017     -0.000001     -0.000030      0.000000
    193 O     s       0.000000      0.000013      0.000043      0.000000
    194 O     s      -0.000000     -0.000012     -0.000041      0.000000
    195 O     s       0.000000      0.000013     -0.000041      0.000000
    196 O     s       0.000000     -0.000013      0.000043      0.000000
    197 O     s       0.000000     -0.000002      0.000056      0.000000
    198 O     s       0.000000      0.000000     -0.000052      0.000000
    199 O     s       0.000000     -0.000060      0.000031      0.000000
    200 O     s       0.000000      0.000059      0.000031      0.000000
    201 O     s      -0.000101      0.000048     -0.000000      0.000000
    202 O     s      -0.000027      0.000017      0.000032      0.000000
    203 O     s      -0.000035      0.000058     -0.000021      0.000000
    204 O     s      -0.000089      0.000039      0.000044      0.000000
    205 O     s       0.000105     -0.000047     -0.000000      0.000000
    206 O     s       0.000071     -0.000026      0.000038      0.000000
    207 O     s      -0.000095     -0.000033      0.000011      0.000000
    208 O     s       0.000050     -0.000041      0.000021      0.000000
    209 O     s       0.000101      0.000047      0.000000      0.000000
    210 O     s       0.000023      0.000016     -0.000032      0.000000
    211 O     s       0.000037      0.000060      0.000022      0.000000
    212 O     s       0.000090      0.000038     -0.000044      0.000000
    213 O     s      -0.000104     -0.000048     -0.000001      0.000000
    214 O     s      -0.000072     -0.000027     -0.000040      0.000000
    215 O     s       0.000098     -0.000034     -0.000010      0.000000
    216 O     s      -0.000051     -0.000043     -0.000020      0.000000
    217 O     s      -0.000048     -0.000033     -0.000000      0.000000
    218 O     s       0.000048     -0.000033     -0.000002      0.000000
    219 O     s      -0.000061      0.000001     -0.000006      0.000000
    220 O     s       0.000077      0.000001      0.000008      0.000000
    221 O     s      -0.000064     -0.000001      0.000004      0.000000
    222 O     s      -0.000078     -0.000001     -0.000008      0.000000
    223 O     s       0.000000      0.000064      0.000000      0.000000
    224 O     s       0.000017     -0.000001      0.000032      0.000000
    225 O     s       0.000000     -0.000012     -0.000044      0.000000
    226 O     s       0.000000      0.000013      0.000040      0.000000
    227 O     s      -0.000000     -0.000013      0.000040      0.000000
    228 O     s      -0.000000      0.000014     -0.000044      0.000000
    229 O     s      -0.000000      0.000000     -0.000057      0.000000
    230 O     s       0.000000     -0.000002      0.000051      0.000000
    231 O     s       0.000000      0.000059     -0.000029      0.000000
    232 O     s       0.000000     -0.000060     -0.000029      0.000000
    233 O     s       0.000100      0.000048     -0.000000      0.000000
    234 O     s       0.000027      0.000017      0.000031      0.000000
    235 O     s       0.000035      0.000058     -0.000021      0.000000
    236 O     s       0.000089      0.000039      0.000044      0.000000
    237 O     s      -0.000105     -0.000047     -0.000000      0.000000
    238 O     s      -0.000071     -0.000026      0.000038      0.000000
    239 O     s       0.000095     -0.000033      0.000011      0.000000
    240 O     s      -0.000051     -0.000041      0.000021      0.000000
    241 O     s      -0.000100      0.000048      0.000000      0.000000
    242 O     s      -0.000024      0.000016     -0.000033      0.000000
    243 O     s      -0.000037      0.000060      0.000022      0.000000
    244 O     s      -0.000090      0.000038     -0.000044      0.000000
    245 O     s       0.000104     -0.000048     -0.000001      0.000000
    246 O     s       0.000072     -0.000027     -0.000040      0.000000
    247 O     s      -0.000098     -0.000034     -0.000010      0.000000
    248 O     s       0.000051     -0.000043     -0.000020      0.000000
    249 O     s       0.000048     -0.000033     -0.000000      0.000000
    250 O     s      -0.000047     -0.000033     -0.000002      0.000000
    251 O     s       0.000060      0.000001     -0.000006      0.000000
    252 O     s      -0.000077      0.000001      0.000008      0.000000
    253 O     s       0.000064     -0.000001      0.000004      0.000000
    254 O     s       0.000078     -0.000001     -0.000008      0.000000
    255 O     s      -0.000000      0.000064      0.000000      0.000000
    256 O     s      -0.000017     -0.000001      0.000032      0.000000
    257 O     s       0.000100     -0.000048     -0.000000      0.000000
    258 O     s       0.000027     -0.000019     -0.000032      0.000000
    259 O     s       0.000034     -0.000059      0.000023      0.000000
    260 O     s       0.000089     -0.000040     -0.000044      0.000000
    261 O     s      -0.000105      0.000047     -0.000000      0.000000
    262 O     s      -0.000071      0.000026     -0.000039      0.000000
    263 O     s       0.000095      0.000033     -0.000010      0.000000
    264 O     s      -0.000051      0.000041     -0.000020      0.000000
    265 O     s      -0.000100     -0.000047     -0.000001      0.000000
    266 O     s      -0.000023     -0.000017      0.000031      0.000000
    267 O     s      -0.000036     -0.000060     -0.000021      0.000000
    268 O     s      -0.000090     -0.000039      0.000044      0.000000
    269 O     s       0.000105      0.000048      0.000000      0.000000
    270 O     s       0.000072      0.000026      0.000039      0.000000
    271 O     s      -0.000097      0.000033      0.000012      0.000000
    272 O     s       0.000051      0.000042      0.000021      0.000000
    273 O     s       0.000048      0.000034     -0.000001      0.000000
    274 O     s      -0.000047      0.000034      0.000000      0.000000
    275 O     s       0.000061      0.000000      0.000005      0.000000
    276 O     s      -0.000077      0.000001     -0.000008      0.000000
    277 O     s       0.000064     -0.000001     -0.000001      0.000000
    278 O     s       0.000078     -0.000001      0.000006      0.000000
    279 O     s      -0.000000     -0.000064      0.000002      0.000000
    280 O     s      -0.000017     -0.000001     -0.000030      0.000000
--------------------------------------------------------------------------------
  Maximum abs         0.000135      0.000064      0.000058      0.000000
--------------------------------------------------------------------------------


  Time to end of optimisation =      17.6045 seconds


  Peak dynamic memory used =      17.25 MB 


  Timing analysis for GULP :

--------------------------------------------------------------------------------
  Task / Subroutine                                          Time (Seconds)
--------------------------------------------------------------------------------
  Calculation of reciprocal space energy and derivatives          0.9849
  Calculation of real space energy and derivatives                8.1303
  Calculation of three-body energy and derivatives                0.7383
  Calculation and manipulation of Hessian matrix                  7.4170
  Calculation of matrix inversion                                 0.2819
  Symmetry generation of equivalent positions                     0.0002
--------------------------------------------------------------------------------
  Total CPU time                                                 17.6045
--------------------------------------------------------------------------------


  Dump file written as ReferenceDataBase/ECNU-13b.grs
  CIF file written as ReferenceDataBase/ECNU-13b_opt.cif


  Job Finished at 00:50.10  6th February   2024                               

