********************************************************************************
*                       GENERAL UTILITY LATTICE PROGRAM                        *
*                                 Julian Gale                                  *
*                       Curtin Institute for Computation                       *
*                    School of Molecular and Life Sciences                     *
*                    Curtin University, Western Australia                      *
********************************************************************************
* Version = 6.1.2 * Last modified =   3rd November 2022                        *
********************************************************************************
*  optimise     - perform optimisation run                                     *
*  conp         - constant pressure calculation                                *
*  nosymmetry   - turn off symmetry after initial structure generation         *
********************************************************************************

  Job Started  at 14:14.04 20th April      2023                               

  Number of CPUs =     8


  Total number of configurations input =      1

********************************************************************************
*  Input for Configuration =   1 : ReferenceDataBase/ECNU-23b                  *
********************************************************************************

  Formula = O112Si56                                                    

  Number of irreducible atoms/shells =     280


  Total number atoms/shells =     280

  Dimensionality = 3               :  Bulk   



  Cartesian lattice vectors (Angstroms) :

       21.676100    0.000000    0.000000
        0.215847   13.538479    0.000000
        0.000000    0.000000   10.013100

  Cell parameters (Angstroms/Degrees):

  a =      21.6761    alpha =  90.0000
  b =      13.5402    beta  =  90.0000
  c =      10.0131    gamma =  89.0866

  Initial cell volume =        2938.458693 Angs**3

  Temperature of configuration =   0.00     K 

  Pressure of configuration =         0.000 GPa 

  Fractional coordinates of asymmetric unit :

--------------------------------------------------------------------------------
   No.  Atomic       x           y          z         Charge      Occupancy
        Label      (Frac)      (Frac)     (Frac)        (e)         (Frac)  
--------------------------------------------------------------------------------
      1 O     c    0.751559 *  0.986172 *  0.177287 *   0.86902    1.000000    
      2 O     c    0.233254 *  0.026666 *  0.177287 *   0.86902    1.000000    
      3 O     c    0.269412 *  0.014489 *  0.927558 *   0.86902    1.000000    
      4 O     c    0.715401 *  0.998348 *  0.927558 *   0.86902    1.000000    
      5 O     c    0.251559 *  0.486172 *  0.677287 *   0.86902    1.000000    
      6 O     c    0.733254 *  0.526666 *  0.677287 *   0.86902    1.000000    
      7 O     c    0.769412 *  0.514489 *  0.427558 *   0.86902    1.000000    
      8 O     c    0.215401 *  0.498348 *  0.427558 *   0.86902    1.000000    
      9 O     c    0.668403 *  0.614721 *  0.496190 *   0.86902    1.000000    
     10 O     c    0.316410 *  0.398116 *  0.496190 *   0.86902    1.000000    
     11 O     c    0.314293 *  0.591313 *  0.506117 *   0.86902    1.000000    
     12 O     c    0.670520 *  0.421524 *  0.506117 *   0.86902    1.000000    
     13 O     c    0.168403 *  0.114721 *  0.996190 *   0.86902    1.000000    
     14 O     c    0.816410 *  0.898116 *  0.996190 *   0.86902    1.000000    
     15 O     c    0.814293 *  0.091313 *  0.006117 *   0.86902    1.000000    
     16 O     c    0.170520 *  0.921524 *  0.006117 *   0.86902    1.000000    
     17 O     c    0.637415 *  0.938354 *  0.239454 *   0.86902    1.000000    
     18 O     c    0.347398 *  0.074483 *  0.239454 *   0.86902    1.000000    
     19 O     c    0.311470 *  0.895607 *  0.745865 *   0.86902    1.000000    
     20 O     c    0.673343 *  0.117230 *  0.745865 *   0.86902    1.000000    
     21 O     c    0.137415 *  0.438354 *  0.739454 *   0.86902    1.000000    
     22 O     c    0.847398 *  0.574483 *  0.739454 *   0.86902    1.000000    
     23 O     c    0.811470 *  0.395607 *  0.245865 *   0.86902    1.000000    
     24 O     c    0.173343 *  0.617230 *  0.245865 *   0.86902    1.000000    
     25 O     c    0.545101 *  0.827794 *  0.294311 *   0.86902    1.000000    
     26 O     c    0.439712 *  0.185043 *  0.294311 *   0.86902    1.000000    
     27 O     c    0.429581 *  0.847736 *  0.732636 *   0.86902    1.000000    
     28 O     c    0.555232 *  0.165102 *  0.732636 *   0.86902    1.000000    
     29 O     c    0.045101 *  0.327794 *  0.794311 *   0.86902    1.000000    
     30 O     c    0.939712 *  0.685043 *  0.794311 *   0.86902    1.000000    
     31 O     c    0.929581 *  0.347736 *  0.232636 *   0.86902    1.000000    
     32 O     c    0.055232 *  0.665102 *  0.232636 *   0.86902    1.000000    
     33 O     c    0.617151 *  0.779770 *  0.091768 *   0.86902    1.000000    
     34 O     c    0.367662 *  0.233067 *  0.091768 *   0.86902    1.000000    
     35 O     c    0.346956 *  0.725319 *  0.836351 *   0.86902    1.000000    
     36 O     c    0.637857 *  0.287519 *  0.836351 *   0.86902    1.000000    
     37 O     c    0.117151 *  0.279770 *  0.591768 *   0.86902    1.000000    
     38 O     c    0.867662 *  0.733067 *  0.591768 *   0.86902    1.000000    
     39 O     c    0.846956 *  0.225319 *  0.336351 *   0.86902    1.000000    
     40 O     c    0.137857 *  0.787519 *  0.336351 *   0.86902    1.000000    
     41 O     c    0.325367 *  0.252549 *  0.330973 *   0.86902    1.000000    
     42 O     c    0.659445 *  0.760289 *  0.330973 *   0.86902    1.000000    
     43 O     c    0.634230 *  0.249184 *  0.580249 *   0.86902    1.000000    
     44 O     c    0.350582 *  0.763654 *  0.580249 *   0.86902    1.000000    
     45 O     c    0.825367 *  0.752549 *  0.830973 *   0.86902    1.000000    
     46 O     c    0.159445 *  0.260289 *  0.830973 *   0.86902    1.000000    
     47 O     c    0.134230 *  0.749184 *  0.080249 *   0.86902    1.000000    
     48 O     c    0.850582 *  0.263654 *  0.080249 *   0.86902    1.000000    
     49 O     c    0.249916 *  0.480087 *  0.176408 *   0.86902    1.000000    
     50 O     c    0.734897 *  0.532750 *  0.176408 *   0.86902    1.000000    
     51 O     c    0.767708 *  0.528773 *  0.925891 *   0.86902    1.000000    
     52 O     c    0.217105 *  0.484065 *  0.925891 *   0.86902    1.000000    
     53 O     c    0.749916 *  0.980087 *  0.676408 *   0.86902    1.000000    
     54 O     c    0.234897 *  0.032750 *  0.676408 *   0.86902    1.000000    
     55 O     c    0.267708 *  0.028773 *  0.425891 *   0.86902    1.000000    
     56 O     c    0.717105 *  0.984065 *  0.425891 *   0.86902    1.000000    
     57 O     c    0.161122 *  0.108787 *  0.500870 *   0.86902    1.000000    
     58 O     c    0.823691 *  0.904051 *  0.500870 *   0.86902    1.000000    
     59 O     c    0.808784 *  0.096742 *  0.506809 *   0.86902    1.000000    
     60 O     c    0.176029 *  0.916095 *  0.506809 *   0.86902    1.000000    
     61 O     c    0.661122 *  0.608787 *  0.000870 *   0.86902    1.000000    
     62 O     c    0.323691 *  0.404051 *  0.000870 *   0.86902    1.000000    
     63 O     c    0.308784 *  0.596742 *  0.006809 *   0.86902    1.000000    
     64 O     c    0.676029 *  0.416095 *  0.006809 *   0.86902    1.000000    
     65 O     c    0.136476 *  0.434031 *  0.259960 *   0.86902    1.000000    
     66 O     c    0.848337 *  0.578806 *  0.259960 *   0.86902    1.000000    
     67 O     c    0.810716 *  0.393496 *  0.764038 *   0.86902    1.000000    
     68 O     c    0.174097 *  0.619341 *  0.764038 *   0.86902    1.000000    
     69 O     c    0.636476 *  0.934031 *  0.759960 *   0.86902    1.000000    
     70 O     c    0.348337 *  0.078806 *  0.759960 *   0.86902    1.000000    
     71 O     c    0.310716 *  0.893496 *  0.264038 *   0.86902    1.000000    
     72 O     c    0.674097 *  0.119341 *  0.264038 *   0.86902    1.000000    
     73 O     c    0.044321 *  0.328081 *  0.182290 *   0.86902    1.000000    
     74 O     c    0.940492 *  0.684756 *  0.182290 *   0.86902    1.000000    
     75 O     c    0.929372 *  0.345968 *  0.749891 *   0.86902    1.000000    
     76 O     c    0.055441 *  0.666869 *  0.749891 *   0.86902    1.000000    
     77 O     c    0.544321 *  0.828081 *  0.682290 *   0.86902    1.000000    
     78 O     c    0.440492 *  0.184756 *  0.682290 *   0.86902    1.000000    
     79 O     c    0.429372 *  0.845968 *  0.249891 *   0.86902    1.000000    
     80 O     c    0.555441 *  0.166869 *  0.249891 *   0.86902    1.000000    
     81 O     c    0.154208 *  0.295965 *  0.088654 *   0.86902    1.000000    
     82 O     c    0.830605 *  0.716872 *  0.088654 *   0.86902    1.000000    
     83 O     c    0.842991 *  0.219602 *  0.832153 *   0.86902    1.000000    
     84 O     c    0.141822 *  0.793235 *  0.832153 *   0.86902    1.000000    
     85 O     c    0.654208 *  0.795965 *  0.588654 *   0.86902    1.000000    
     86 O     c    0.330605 *  0.216872 *  0.588654 *   0.86902    1.000000    
     87 O     c    0.342991 *  0.719602 *  0.332153 *   0.86902    1.000000    
     88 O     c    0.641822 *  0.293235 *  0.332153 *   0.86902    1.000000    
     89 O     c    0.857568 *  0.765926 *  0.336873 *   0.86902    1.000000    
     90 O     c    0.127245 *  0.246911 *  0.336873 *   0.86902    1.000000    
     91 O     c    0.131161 *  0.744849 *  0.584011 *   0.86902    1.000000    
     92 O     c    0.853652 *  0.267989 *  0.584011 *   0.86902    1.000000    
     93 O     c    0.357568 *  0.265926 *  0.836873 *   0.86902    1.000000    
     94 O     c    0.627245 *  0.746911 *  0.836873 *   0.86902    1.000000    
     95 O     c    0.631161 *  0.244849 *  0.084011 *   0.86902    1.000000    
     96 O     c    0.353652 *  0.767989 *  0.084011 *   0.86902    1.000000    
     97 O     c    0.992406 *  0.506419 *  0.187679 *   0.86902    1.000000    
     98 O     c    0.992406 *  0.506419 *  0.789225 *   0.86902    1.000000    
     99 O     c    0.492407 *  0.006419 *  0.687679 *   0.86902    1.000000    
    100 O     c    0.492407 *  0.006419 *  0.289225 *   0.86902    1.000000    
    101 O     c    0.970204 *  0.385399 *  0.988744 *   0.86902    1.000000    
    102 O     c    0.014609 *  0.627439 *  0.988744 *   0.86902    1.000000    
    103 O     c    0.470204 *  0.885399 *  0.488744 *   0.86902    1.000000    
    104 O     c    0.514609 *  0.127439 *  0.488744 *   0.86902    1.000000    
    105 O     c    0.740265 *  0.248844 *  0.974628 *   0.86902    1.000000    
    106 O     c    0.244548 *  0.763993 *  0.974628 *   0.86902    1.000000    
    107 O     c    0.257880 *  0.240570 *  0.980147 *   0.86902    1.000000    
    108 O     c    0.726932 *  0.772268 *  0.980147 *   0.86902    1.000000    
    109 O     c    0.240265 *  0.748844 *  0.474628 *   0.86902    1.000000    
    110 O     c    0.744548 *  0.263993 *  0.474628 *   0.86902    1.000000    
    111 O     c    0.757880 *  0.740570 *  0.480147 *   0.86902    1.000000    
    112 O     c    0.226932 *  0.272268 *  0.480147 *   0.86902    1.000000    
    113 Si    c    0.694666 *  0.006436 *  0.275562 *   4.00000    1.000000    
    114 Si    c    0.290146 *  0.006401 *  0.275562 *   4.00000    1.000000    
    115 Si    c    0.291259 *  0.006511 *  0.775474 *   4.00000    1.000000    
    116 Si    c    0.693554 *  0.006326 *  0.775474 *   4.00000    1.000000    
    117 Si    c    0.194666 *  0.506436 *  0.775562 *   4.00000    1.000000    
    118 Si    c    0.790146 *  0.506401 *  0.775562 *   4.00000    1.000000    
    119 Si    c    0.791259 *  0.506511 *  0.275474 *   4.00000    1.000000    
    120 Si    c    0.193554 *  0.506326 *  0.275474 *   4.00000    1.000000    
    121 Si    c    0.709729 *  0.519608 *  0.026618 *   4.00000    1.000000    
    122 Si    c    0.275084 *  0.493230 *  0.026618 *   4.00000    1.000000    
    123 Si    c    0.209729 *  0.019608 *  0.526618 *   4.00000    1.000000    
    124 Si    c    0.775084 *  0.993230 *  0.526618 *   4.00000    1.000000    
    125 Si    c    0.210628 *  0.018271 *  0.025432 *   4.00000    1.000000    
    126 Si    c    0.774185 *  0.994566 *  0.025432 *   4.00000    1.000000    
    127 Si    c    0.710628 *  0.518271 *  0.525432 *   4.00000    1.000000    
    128 Si    c    0.274185 *  0.494566 *  0.525432 *   4.00000    1.000000    
    129 Si    c    0.659071 *  0.726781 *  0.979205 *   4.00000    1.000000    
    130 Si    c    0.325741 *  0.286056 *  0.979205 *   4.00000    1.000000    
    131 Si    c    0.311625 *  0.712932 *  0.976573 *   4.00000    1.000000    
    132 Si    c    0.673188 *  0.299905 *  0.976573 *   4.00000    1.000000    
    133 Si    c    0.159071 *  0.226781 *  0.479205 *   4.00000    1.000000    
    134 Si    c    0.825742 *  0.786056 *  0.479205 *   4.00000    1.000000    
    135 Si    c    0.811625 *  0.212932 *  0.476573 *   4.00000    1.000000    
    136 Si    c    0.173188 *  0.799905 *  0.476573 *   4.00000    1.000000    
    137 Si    c    0.614468 *  0.826106 *  0.239078 *   4.00000    1.000000    
    138 Si    c    0.370345 *  0.186732 *  0.239078 *   4.00000    1.000000    
    139 Si    c    0.360437 *  0.807930 *  0.725299 *   4.00000    1.000000    
    140 Si    c    0.624375 *  0.204907 *  0.725299 *   4.00000    1.000000    
    141 Si    c    0.114468 *  0.326106 *  0.739078 *   4.00000    1.000000    
    142 Si    c    0.870345 *  0.686732 *  0.739078 *   4.00000    1.000000    
    143 Si    c    0.860437 *  0.307930 *  0.225299 *   4.00000    1.000000    
    144 Si    c    0.124375 *  0.704907 *  0.225299 *   4.00000    1.000000    
    145 Si    c    0.184422 *  0.229615 *  0.975077 *   4.00000    1.000000    
    146 Si    c    0.800390 *  0.783223 *  0.975077 *   4.00000    1.000000    
    147 Si    c    0.809778 *  0.207075 *  0.974075 *   4.00000    1.000000    
    148 Si    c    0.175035 *  0.805762 *  0.974075 *   4.00000    1.000000    
    149 Si    c    0.684423 *  0.729615 *  0.475077 *   4.00000    1.000000    
    150 Si    c    0.300390 *  0.283223 *  0.475077 *   4.00000    1.000000    
    151 Si    c    0.309778 *  0.707075 *  0.474075 *   4.00000    1.000000    
    152 Si    c    0.675035 *  0.305762 *  0.474075 *   4.00000    1.000000    
    153 Si    c    0.115892 *  0.324937 *  0.218863 *   4.00000    1.000000    
    154 Si    c    0.868920 *  0.687901 *  0.218863 *   4.00000    1.000000    
    155 Si    c    0.860547 *  0.307927 *  0.732905 *   4.00000    1.000000    
    156 Si    c    0.124266 *  0.704910 *  0.732905 *   4.00000    1.000000    
    157 Si    c    0.615892 *  0.824937 *  0.718863 *   4.00000    1.000000    
    158 Si    c    0.368920 *  0.187901 *  0.718863 *   4.00000    1.000000    
    159 Si    c    0.360547 *  0.807927 *  0.232905 *   4.00000    1.000000    
    160 Si    c    0.624266 *  0.204910 *  0.232905 *   4.00000    1.000000    
    161 Si    c    0.984519 *  0.393013 *  0.145707 *   4.00000    1.000000    
    162 Si    c    0.000294 *  0.619825 *  0.145707 *   4.00000    1.000000    
    163 Si    c    0.984873 *  0.392687 *  0.832200 *   4.00000    1.000000    
    164 Si    c    0.999940 *  0.620150 *  0.832200 *   4.00000    1.000000    
    165 Si    c    0.484519 *  0.893013 *  0.645707 *   4.00000    1.000000    
    166 Si    c    0.500294 *  0.119825 *  0.645707 *   4.00000    1.000000    
    167 Si    c    0.484873 *  0.892687 *  0.332200 *   4.00000    1.000000    
    168 Si    c    0.499940    0.120150    0.332200     4.00000    1.000000    
    169 O     s    0.751559 *  0.986172 *  0.177287 *  -2.86902    1.000000    
    170 O     s    0.233254 *  0.026666 *  0.177287 *  -2.86902    1.000000    
    171 O     s    0.269412 *  0.014489 *  0.927558 *  -2.86902    1.000000    
    172 O     s    0.715401 *  0.998348 *  0.927558 *  -2.86902    1.000000    
    173 O     s    0.251559 *  0.486172 *  0.677287 *  -2.86902    1.000000    
    174 O     s    0.733254 *  0.526666 *  0.677287 *  -2.86902    1.000000    
    175 O     s    0.769412 *  0.514489 *  0.427558 *  -2.86902    1.000000    
    176 O     s    0.215401 *  0.498348 *  0.427558 *  -2.86902    1.000000    
    177 O     s    0.668403 *  0.614721 *  0.496190 *  -2.86902    1.000000    
    178 O     s    0.316410 *  0.398116 *  0.496190 *  -2.86902    1.000000    
    179 O     s    0.314293 *  0.591313 *  0.506117 *  -2.86902    1.000000    
    180 O     s    0.670520 *  0.421524 *  0.506117 *  -2.86902    1.000000    
    181 O     s    0.168403 *  0.114721 *  0.996190 *  -2.86902    1.000000    
    182 O     s    0.816410 *  0.898116 *  0.996190 *  -2.86902    1.000000    
    183 O     s    0.814293 *  0.091313 *  0.006117 *  -2.86902    1.000000    
    184 O     s    0.170520 *  0.921524 *  0.006117 *  -2.86902    1.000000    
    185 O     s    0.637415 *  0.938354 *  0.239454 *  -2.86902    1.000000    
    186 O     s    0.347398 *  0.074483 *  0.239454 *  -2.86902    1.000000    
    187 O     s    0.311470 *  0.895607 *  0.745865 *  -2.86902    1.000000    
    188 O     s    0.673343 *  0.117230 *  0.745865 *  -2.86902    1.000000    
    189 O     s    0.137415 *  0.438354 *  0.739454 *  -2.86902    1.000000    
    190 O     s    0.847398 *  0.574483 *  0.739454 *  -2.86902    1.000000    
    191 O     s    0.811470 *  0.395607 *  0.245865 *  -2.86902    1.000000    
    192 O     s    0.173343 *  0.617230 *  0.245865 *  -2.86902    1.000000    
    193 O     s    0.545101 *  0.827794 *  0.294311 *  -2.86902    1.000000    
    194 O     s    0.439712 *  0.185043 *  0.294311 *  -2.86902    1.000000    
    195 O     s    0.429581 *  0.847736 *  0.732636 *  -2.86902    1.000000    
    196 O     s    0.555232 *  0.165102 *  0.732636 *  -2.86902    1.000000    
    197 O     s    0.045101 *  0.327794 *  0.794311 *  -2.86902    1.000000    
    198 O     s    0.939712 *  0.685043 *  0.794311 *  -2.86902    1.000000    
    199 O     s    0.929581 *  0.347736 *  0.232636 *  -2.86902    1.000000    
    200 O     s    0.055232 *  0.665102 *  0.232636 *  -2.86902    1.000000    
    201 O     s    0.617151 *  0.779770 *  0.091768 *  -2.86902    1.000000    
    202 O     s    0.367662 *  0.233067 *  0.091768 *  -2.86902    1.000000    
    203 O     s    0.346956 *  0.725319 *  0.836351 *  -2.86902    1.000000    
    204 O     s    0.637857 *  0.287519 *  0.836351 *  -2.86902    1.000000    
    205 O     s    0.117151 *  0.279770 *  0.591768 *  -2.86902    1.000000    
    206 O     s    0.867662 *  0.733067 *  0.591768 *  -2.86902    1.000000    
    207 O     s    0.846956 *  0.225319 *  0.336351 *  -2.86902    1.000000    
    208 O     s    0.137857 *  0.787519 *  0.336351 *  -2.86902    1.000000    
    209 O     s    0.325367 *  0.252549 *  0.330973 *  -2.86902    1.000000    
    210 O     s    0.659445 *  0.760289 *  0.330973 *  -2.86902    1.000000    
    211 O     s    0.634230 *  0.249184 *  0.580249 *  -2.86902    1.000000    
    212 O     s    0.350582 *  0.763654 *  0.580249 *  -2.86902    1.000000    
    213 O     s    0.825367 *  0.752549 *  0.830973 *  -2.86902    1.000000    
    214 O     s    0.159445 *  0.260289 *  0.830973 *  -2.86902    1.000000    
    215 O     s    0.134230 *  0.749184 *  0.080249 *  -2.86902    1.000000    
    216 O     s    0.850582 *  0.263654 *  0.080249 *  -2.86902    1.000000    
    217 O     s    0.249916 *  0.480087 *  0.176408 *  -2.86902    1.000000    
    218 O     s    0.734897 *  0.532750 *  0.176408 *  -2.86902    1.000000    
    219 O     s    0.767708 *  0.528773 *  0.925891 *  -2.86902    1.000000    
    220 O     s    0.217105 *  0.484065 *  0.925891 *  -2.86902    1.000000    
    221 O     s    0.749916 *  0.980087 *  0.676408 *  -2.86902    1.000000    
    222 O     s    0.234897 *  0.032750 *  0.676408 *  -2.86902    1.000000    
    223 O     s    0.267708 *  0.028773 *  0.425891 *  -2.86902    1.000000    
    224 O     s    0.717105 *  0.984065 *  0.425891 *  -2.86902    1.000000    
    225 O     s    0.161122 *  0.108787 *  0.500870 *  -2.86902    1.000000    
    226 O     s    0.823691 *  0.904051 *  0.500870 *  -2.86902    1.000000    
    227 O     s    0.808784 *  0.096742 *  0.506809 *  -2.86902    1.000000    
    228 O     s    0.176029 *  0.916095 *  0.506809 *  -2.86902    1.000000    
    229 O     s    0.661122 *  0.608787 *  0.000870 *  -2.86902    1.000000    
    230 O     s    0.323691 *  0.404051 *  0.000870 *  -2.86902    1.000000    
    231 O     s    0.308784 *  0.596742 *  0.006809 *  -2.86902    1.000000    
    232 O     s    0.676029 *  0.416095 *  0.006809 *  -2.86902    1.000000    
    233 O     s    0.136476 *  0.434031 *  0.259960 *  -2.86902    1.000000    
    234 O     s    0.848337 *  0.578806 *  0.259960 *  -2.86902    1.000000    
    235 O     s    0.810716 *  0.393496 *  0.764038 *  -2.86902    1.000000    
    236 O     s    0.174097 *  0.619341 *  0.764038 *  -2.86902    1.000000    
    237 O     s    0.636476 *  0.934031 *  0.759960 *  -2.86902    1.000000    
    238 O     s    0.348337 *  0.078806 *  0.759960 *  -2.86902    1.000000    
    239 O     s    0.310716 *  0.893496 *  0.264038 *  -2.86902    1.000000    
    240 O     s    0.674097 *  0.119341 *  0.264038 *  -2.86902    1.000000    
    241 O     s    0.044321 *  0.328081 *  0.182290 *  -2.86902    1.000000    
    242 O     s    0.940492 *  0.684756 *  0.182290 *  -2.86902    1.000000    
    243 O     s    0.929372 *  0.345968 *  0.749891 *  -2.86902    1.000000    
    244 O     s    0.055441 *  0.666869 *  0.749891 *  -2.86902    1.000000    
    245 O     s    0.544321 *  0.828081 *  0.682290 *  -2.86902    1.000000    
    246 O     s    0.440492 *  0.184756 *  0.682290 *  -2.86902    1.000000    
    247 O     s    0.429372 *  0.845968 *  0.249891 *  -2.86902    1.000000    
    248 O     s    0.555441 *  0.166869 *  0.249891 *  -2.86902    1.000000    
    249 O     s    0.154208 *  0.295965 *  0.088654 *  -2.86902    1.000000    
    250 O     s    0.830605 *  0.716872 *  0.088654 *  -2.86902    1.000000    
    251 O     s    0.842991 *  0.219602 *  0.832153 *  -2.86902    1.000000    
    252 O     s    0.141822 *  0.793235 *  0.832153 *  -2.86902    1.000000    
    253 O     s    0.654208 *  0.795965 *  0.588654 *  -2.86902    1.000000    
    254 O     s    0.330605 *  0.216872 *  0.588654 *  -2.86902    1.000000    
    255 O     s    0.342991 *  0.719602 *  0.332153 *  -2.86902    1.000000    
    256 O     s    0.641822 *  0.293235 *  0.332153 *  -2.86902    1.000000    
    257 O     s    0.857568 *  0.765926 *  0.336873 *  -2.86902    1.000000    
    258 O     s    0.127245 *  0.246911 *  0.336873 *  -2.86902    1.000000    
    259 O     s    0.131161 *  0.744849 *  0.584011 *  -2.86902    1.000000    
    260 O     s    0.853652 *  0.267989 *  0.584011 *  -2.86902    1.000000    
    261 O     s    0.357568 *  0.265926 *  0.836873 *  -2.86902    1.000000    
    262 O     s    0.627245 *  0.746911 *  0.836873 *  -2.86902    1.000000    
    263 O     s    0.631161 *  0.244849 *  0.084011 *  -2.86902    1.000000    
    264 O     s    0.353652 *  0.767989 *  0.084011 *  -2.86902    1.000000    
    265 O     s    0.992406 *  0.506419 *  0.187679 *  -2.86902    1.000000    
    266 O     s    0.992406 *  0.506419 *  0.789225 *  -2.86902    1.000000    
    267 O     s    0.492407 *  0.006419 *  0.687679 *  -2.86902    1.000000    
    268 O     s    0.492407 *  0.006419 *  0.289225 *  -2.86902    1.000000    
    269 O     s    0.970204 *  0.385399 *  0.988744 *  -2.86902    1.000000    
    270 O     s    0.014609 *  0.627439 *  0.988744 *  -2.86902    1.000000    
    271 O     s    0.470204 *  0.885399 *  0.488744 *  -2.86902    1.000000    
    272 O     s    0.514609 *  0.127439 *  0.488744 *  -2.86902    1.000000    
    273 O     s    0.740265 *  0.248844 *  0.974628 *  -2.86902    1.000000    
    274 O     s    0.244548 *  0.763993 *  0.974628 *  -2.86902    1.000000    
    275 O     s    0.257880 *  0.240570 *  0.980147 *  -2.86902    1.000000    
    276 O     s    0.726932 *  0.772268 *  0.980147 *  -2.86902    1.000000    
    277 O     s    0.240265 *  0.748844 *  0.474628 *  -2.86902    1.000000    
    278 O     s    0.744548 *  0.263993 *  0.474628 *  -2.86902    1.000000    
    279 O     s    0.757880 *  0.740570 *  0.480147 *  -2.86902    1.000000    
    280 O     s    0.226932 *  0.272268 *  0.480147 *  -2.86902    1.000000    
--------------------------------------------------------------------------------



********************************************************************************
*  General input information                                                   *
********************************************************************************

  Species output for all configurations : 

--------------------------------------------------------------------------------
  Species    Type    Atomic    Atomic    Charge       Radii (Angs)     Library
                     Number     Mass       (e)     Cova   Ionic  VDW   Symbol
--------------------------------------------------------------------------------
    O        Core        8      16.00   0.869020   0.730  0.000  1.360 O        
    O        Shell       8       0.00  -2.869020   0.730  0.000  0.000 O        
    Si       Core       14      28.09   4.000000   1.200  0.000  2.100 Si       
--------------------------------------------------------------------------------


  Lattice summation method               =    Ewald          (3-D)
                                         =    Parry          (2-D)
                                         =    Saunders et al (1-D)
  Accuracy factor for lattice sums       =   12.000


  Analytic derivatives to be used

  Time limit = Infinity

  Maximum range for interatomic potentials =    100000.000000 Angstroms

  General interatomic potentials :

--------------------------------------------------------------------------------
Atom  Types   Potential      Parameter       Value         Units   Cutoffs(Ang)
  1     2                                                            Min /  Max 
--------------------------------------------------------------------------------
Si   c O    s Buckingham    Buckingham A     1283.9070    eV        0.000 10.000
                            Buckingham rho  0.32052000    Ang       
                            Buckingham C     10.661580    eV*Ang^6  
--------------------------------------------------------------------------------
O    s O    s Buckingham    Buckingham A     22764.000    eV        0.000 12.000
                            Buckingham rho  0.14900000    Ang       
                            Buckingham C     27.879000    eV*Ang^6  
--------------------------------------------------------------------------------
O    c O    s Spring (c-s)  Spring k 2       74.920000    eV*Ang^-2 0.000  1.100
                            Spring k 4       0.0000000    eV*Ang^-4 
--------------------------------------------------------------------------------

  General Three-body potentials :

--------------------------------------------------------------------------------
  Atoms       Potential      Parameter       Value         Units   Cutoffs(Ang)
  1 / 2 / 3                                                          Min /  Max 
--------------------------------------------------------------------------------
Si    core    Harmonic      Three-body cnst  2.0972400    eV*rad^-2 0.000  1.900
O     shel                  Three-body angl  109.47000    degrees   0.000  1.900
O     shel                  Three-body k4    0.0000000    eV*rad^-4 0.000  3.500
                            Three-body k3    0.0000000    eV*rad^-3 
--------------------------------------------------------------------------------
Si    core    Harmonic      Three-body cnst  2.0972400    eV*rad^-2 0.000  1.900
O     shel                  Three-body angl  109.47000    degrees   0.000  1.900
õ(    shel                  Three-body k4    0.0000000    eV*rad^-4 0.000  3.500
                            Three-body k3    0.0000000    eV*rad^-3 
--------------------------------------------------------------------------------
Si    core    Harmonic      Three-body cnst  2.0972400    eV*rad^-2 0.000  1.900
õ(    shel                  Three-body angl  109.47000    degrees   0.000  1.900
õ(    shel                  Three-body k4    0.0000000    eV*rad^-4 0.000  3.500
                            Three-body k3    0.0000000    eV*rad^-3 
--------------------------------------------------------------------------------

********************************************************************************
*  Output for configuration   1 : ReferenceDataBase/ECNU-23b                   *
********************************************************************************


  Components of energy : 

--------------------------------------------------------------------------------
  Interatomic potentials     =        1770.70399256 eV    
  Three-body potentials      =           0.46497964 eV    
  Monopole - monopole (real) =       -6746.77735605 eV    
  Monopole - monopole (recip)=       -2157.21679152 eV    
  Monopole - monopole (total)=       -8903.99414757 eV    
--------------------------------------------------------------------------------
  Total lattice energy       =       -7132.82517538 eV    
--------------------------------------------------------------------------------
  Total lattice energy       =         -688208.5942 kJ/(mole unit cells)
--------------------------------------------------------------------------------


  Number of variables =      843

  Maximum number of calculations  =           500
  Maximum Hessian update interval =            10
  Maximum step size               =   0.100000000
  Maximum parameter tolerance     =   0.000010000
  Maximum function  tolerance     =   0.000010000
  Maximum gradient  tolerance     =   0.001000000
  Maximum gradient  component     =   0.010000000

  Cell parameters to be optimised using strains

  Newton-Raphson optimiser to be used

  BFGS hessian update to be used

  General 2-D hessian to be used

  Minimiser to switch to RFO
  When gradient norm is less than     0.080000

  Switch max step size to       0.30000000 when gnorm is less than     0.005000

  Dumpfile to be written after every cycle

  Start of bulk optimisation :

  Cycle:      0 Energy:     -7132.825175  Gnorm:      3.589014  CPU:    0.168
  ** Hessian calculated **
  Cycle:      1 Energy:     -7152.834961  Gnorm:      3.019034  CPU:    0.349
  ** Hessian calculated **
  Cycle:      2 Energy:     -7198.658470  Gnorm:      0.565964  CPU:    0.559
  ** Hessian calculated **
  Cycle:      3 Energy:     -7200.307850  Gnorm:      0.286256  CPU:    0.732
  Cycle:      4 Energy:     -7200.737998  Gnorm:      0.145766  CPU:    0.790
  Cycle:      5 Energy:     -7200.853599  Gnorm:      0.073414  CPU:    0.849
  ** Hessian has required structure
  Cycle:      6 Energy:     -7200.853673  Gnorm:      0.072609  CPU:    0.934
  ** Hessian has required structure
  Cycle:      7 Energy:     -7200.853730  Gnorm:      0.072387  CPU:    1.010
  ** Hessian has required structure
  Cycle:      8 Energy:     -7200.853762  Gnorm:      0.072765  CPU:    1.088
  ** Hessian has required structure
  Cycle:      9 Energy:     -7200.853782  Gnorm:      0.073509  CPU:    1.164
  ** Hessian has required structure
  ** Hessian has required structure
  Cycle:     10 Energy:     -7200.885506  Gnorm:      0.036845  CPU:    1.381
  ** Hessian has required structure
  Cycle:     11 Energy:     -7200.893571  Gnorm:      0.018483  CPU:    1.482
  ** Hessian has required structure
  Cycle:     12 Energy:     -7200.895710  Gnorm:      0.009239  CPU:    1.621
  ** Hessian has required structure
  Cycle:     13 Energy:     -7200.896073  Gnorm:      0.006461  CPU:    1.701
  ** Hessian has required structure
  Cycle:     14 Energy:     -7200.896332  Gnorm:      0.003873  CPU:    1.788
  ** Hessian has required structure
  Cycle:     15 Energy:     -7200.896382  Gnorm:      0.003016  CPU:    1.875
  ** Hessian has required structure
  Cycle:     16 Energy:     -7200.896383  Gnorm:      0.002980  CPU:    1.971
  ** Hessian has required structure
  Cycle:     17 Energy:     -7200.896384  Gnorm:      0.002972  CPU:    2.050
  ** Hessian has required structure
  Cycle:     18 Energy:     -7200.896457  Gnorm:      0.000293  CPU:    2.146
  ** Hessian has required structure


  **** Optimisation achieved ****


  Final energy =   -7200.89645804 eV      
  Final Gnorm  =       0.00002820

  Components of energy : 

--------------------------------------------------------------------------------
  Interatomic potentials     =        1954.50353620 eV    
  Three-body potentials      =           0.77307767 eV    
  Monopole - monopole (real) =       -6097.90660006 eV    
  Monopole - monopole (recip)=       -3058.26647186 eV    
  Monopole - monopole (total)=       -9156.17307192 eV    
--------------------------------------------------------------------------------
  Total lattice energy       =       -7200.89645804 eV    
--------------------------------------------------------------------------------
  Total lattice energy       =         -694776.4324 kJ/(mole unit cells)
--------------------------------------------------------------------------------

  Final fractional coordinates of atoms :

--------------------------------------------------------------------------------
   No.  Atomic        x           y          z          Radius
        Label       (Frac)      (Frac)     (Frac)       (Angs) 
--------------------------------------------------------------------------------
     1  O     c     0.751559    0.986171    0.177288    0.000000
     2  O     c     0.233254    0.026666    0.177288    0.000000
     3  O     c     0.269412    0.014490    0.927559    0.000000
     4  O     c     0.715401    0.998347    0.927559    0.000000
     5  O     c     0.251559    0.486171    0.677288    0.000000
     6  O     c     0.733254    0.526666    0.677288    0.000000
     7  O     c     0.769412    0.514490    0.427559    0.000000
     8  O     c     0.215401    0.498347    0.427559    0.000000
     9  O     c     0.668403    0.614721    0.496191    0.000000
    10  O     c     0.316410    0.398116    0.496191    0.000000
    11  O     c     0.314292    0.591313    0.506117    0.000000
    12  O     c     0.670521    0.421524    0.506117    0.000000
    13  O     c     0.168403    0.114721    0.996191    0.000000
    14  O     c     0.816410    0.898116    0.996191    0.000000
    15  O     c     0.814292    0.091313    0.006117    0.000000
    16  O     c     0.170521    0.921524    0.006117    0.000000
    17  O     c     0.637415    0.938354    0.239456    0.000000
    18  O     c     0.347398    0.074483    0.239456    0.000000
    19  O     c     0.311470    0.895607    0.745867    0.000000
    20  O     c     0.673343    0.117230    0.745867    0.000000
    21  O     c     0.137415    0.438354    0.739456    0.000000
    22  O     c     0.847398    0.574483    0.739456    0.000000
    23  O     c     0.811470    0.395607    0.245867    0.000000
    24  O     c     0.173343    0.617230    0.245867    0.000000
    25  O     c     0.545101    0.827794    0.294309    0.000000
    26  O     c     0.439713    0.185043    0.294309    0.000000
    27  O     c     0.429581    0.847736    0.732636    0.000000
    28  O     c     0.555232    0.165101    0.732636    0.000000
    29  O     c     0.045101    0.327794    0.794309    0.000000
    30  O     c     0.939713    0.685043    0.794309    0.000000
    31  O     c     0.929581    0.347736    0.232636    0.000000
    32  O     c     0.055232    0.665101    0.232636    0.000000
    33  O     c     0.617152    0.779771    0.091766    0.000000
    34  O     c     0.367661    0.233066    0.091766    0.000000
    35  O     c     0.346956    0.725318    0.836352    0.000000
    36  O     c     0.637857    0.287519    0.836352    0.000000
    37  O     c     0.117152    0.279771    0.591766    0.000000
    38  O     c     0.867661    0.733066    0.591766    0.000000
    39  O     c     0.846956    0.225318    0.336352    0.000000
    40  O     c     0.137857    0.787519    0.336352    0.000000
    41  O     c     0.325368    0.252550    0.330972    0.000000
    42  O     c     0.659445    0.760287    0.330972    0.000000
    43  O     c     0.634231    0.249183    0.580250    0.000000
    44  O     c     0.350582    0.763654    0.580250    0.000000
    45  O     c     0.825368    0.752550    0.830972    0.000000
    46  O     c     0.159445    0.260287    0.830972    0.000000
    47  O     c     0.134231    0.749183    0.080250    0.000000
    48  O     c     0.850582    0.263654    0.080250    0.000000
    49  O     c     0.249916    0.480088    0.176409    0.000000
    50  O     c     0.734897    0.532749    0.176409    0.000000
    51  O     c     0.767708    0.528772    0.925892    0.000000
    52  O     c     0.217105    0.484065    0.925892    0.000000
    53  O     c     0.749916    0.980088    0.676409    0.000000
    54  O     c     0.234897    0.032749    0.676409    0.000000
    55  O     c     0.267708    0.028772    0.425892    0.000000
    56  O     c     0.717105    0.984065    0.425892    0.000000
    57  O     c     0.161122    0.108787    0.500870    0.000000
    58  O     c     0.823691    0.904050    0.500870    0.000000
    59  O     c     0.808784    0.096742    0.506810    0.000000
    60  O     c     0.176029    0.916095    0.506810    0.000000
    61  O     c     0.661122    0.608787    0.000870    0.000000
    62  O     c     0.323691    0.404050    0.000870    0.000000
    63  O     c     0.308784    0.596742    0.006810    0.000000
    64  O     c     0.676029    0.416095    0.006810    0.000000
    65  O     c     0.136476    0.434031    0.259961    0.000000
    66  O     c     0.848337    0.578806    0.259961    0.000000
    67  O     c     0.810716    0.393496    0.764038    0.000000
    68  O     c     0.174097    0.619341    0.764038    0.000000
    69  O     c     0.636476    0.934031    0.759961    0.000000
    70  O     c     0.348337    0.078806    0.759961    0.000000
    71  O     c     0.310716    0.893496    0.264038    0.000000
    72  O     c     0.674097    0.119341    0.264038    0.000000
    73  O     c     0.044321    0.328081    0.182293    0.000000
    74  O     c     0.940492    0.684756    0.182293    0.000000
    75  O     c     0.929372    0.345968    0.749892    0.000000
    76  O     c     0.055441    0.666869    0.749892    0.000000
    77  O     c     0.544321    0.828081    0.682293    0.000000
    78  O     c     0.440492    0.184756    0.682293    0.000000
    79  O     c     0.429372    0.845968    0.249892    0.000000
    80  O     c     0.555441    0.166869    0.249892    0.000000
    81  O     c     0.154207    0.295966    0.088653    0.000000
    82  O     c     0.830606    0.716871    0.088653    0.000000
    83  O     c     0.842991    0.219602    0.832154    0.000000
    84  O     c     0.141822    0.793235    0.832154    0.000000
    85  O     c     0.654207    0.795966    0.588653    0.000000
    86  O     c     0.330606    0.216871    0.588653    0.000000
    87  O     c     0.342991    0.719602    0.332154    0.000000
    88  O     c     0.641822    0.293235    0.332154    0.000000
    89  O     c     0.857567    0.765927    0.336872    0.000000
    90  O     c     0.127246    0.246910    0.336872    0.000000
    91  O     c     0.131161    0.744849    0.584012    0.000000
    92  O     c     0.853652    0.267988    0.584012    0.000000
    93  O     c     0.357567    0.265927    0.836872    0.000000
    94  O     c     0.627246    0.746910    0.836872    0.000000
    95  O     c     0.631161    0.244849    0.084012    0.000000
    96  O     c     0.353652    0.767988    0.084012    0.000000
    97  O     c     0.992407    0.506419    0.187678    0.000000
    98  O     c     0.992407    0.506419    0.789226    0.000000
    99  O     c     0.492407    0.006419    0.687678    0.000000
   100  O     c     0.492407    0.006418    0.289226    0.000000
   101  O     c     0.970206    0.385397    0.988745    0.000000
   102  O     c     0.014608    0.627440    0.988745    0.000000
   103  O     c     0.470206    0.885397    0.488745    0.000000
   104  O     c     0.514608    0.127440    0.488745    0.000000
   105  O     c     0.740265    0.248844    0.974628    0.000000
   106  O     c     0.244548    0.763993    0.974628    0.000000
   107  O     c     0.257880    0.240570    0.980147    0.000000
   108  O     c     0.726933    0.772267    0.980147    0.000000
   109  O     c     0.240265    0.748844    0.474628    0.000000
   110  O     c     0.744548    0.263993    0.474628    0.000000
   111  O     c     0.757880    0.740570    0.480147    0.000000
   112  O     c     0.226933    0.272267    0.480147    0.000000
   113  Si    c     0.694667    0.006436    0.275563    0.000000
   114  Si    c     0.290147    0.006401    0.275563    0.000000
   115  Si    c     0.291260    0.006511    0.775476    0.000000
   116  Si    c     0.693554    0.006326    0.775476    0.000000
   117  Si    c     0.194667    0.506436    0.775563    0.000000
   118  Si    c     0.790147    0.506401    0.775563    0.000000
   119  Si    c     0.791260    0.506511    0.275476    0.000000
   120  Si    c     0.193554    0.506326    0.275476    0.000000
   121  Si    c     0.709729    0.519607    0.026619    0.000000
   122  Si    c     0.275084    0.493230    0.026619    0.000000
   123  Si    c     0.209729    0.019607    0.526619    0.000000
   124  Si    c     0.775084    0.993230    0.526619    0.000000
   125  Si    c     0.210629    0.018271    0.025433    0.000000
   126  Si    c     0.774185    0.994566    0.025433    0.000000
   127  Si    c     0.710629    0.518271    0.525433    0.000000
   128  Si    c     0.274185    0.494566    0.525433    0.000000
   129  Si    c     0.659072    0.726781    0.979205    0.000000
   130  Si    c     0.325741    0.286056    0.979204    0.000000
   131  Si    c     0.311626    0.712932    0.976574    0.000000
   132  Si    c     0.673188    0.299905    0.976574    0.000000
   133  Si    c     0.159072    0.226781    0.479204    0.000000
   134  Si    c     0.825741    0.786056    0.479205    0.000000
   135  Si    c     0.811626    0.212932    0.476574    0.000000
   136  Si    c     0.173188    0.799905    0.476574    0.000000
   137  Si    c     0.614468    0.826105    0.239078    0.000000
   138  Si    c     0.370345    0.186732    0.239078    0.000000
   139  Si    c     0.360438    0.807930    0.725299    0.000000
   140  Si    c     0.624376    0.204907    0.725299    0.000000
   141  Si    c     0.114468    0.326105    0.739078    0.000000
   142  Si    c     0.870345    0.686732    0.739078    0.000000
   143  Si    c     0.860438    0.307930    0.225299    0.000000
   144  Si    c     0.124376    0.704907    0.225299    0.000000
   145  Si    c     0.184422    0.229614    0.975077    0.000000
   146  Si    c     0.800391    0.783223    0.975077    0.000000
   147  Si    c     0.809777    0.207075    0.974076    0.000000
   148  Si    c     0.175036    0.805762    0.974076    0.000000
   149  Si    c     0.684422    0.729614    0.475077    0.000000
   150  Si    c     0.300391    0.283223    0.475077    0.000000
   151  Si    c     0.309777    0.707075    0.474076    0.000000
   152  Si    c     0.675036    0.305762    0.474076    0.000000
   153  Si    c     0.115893    0.324936    0.218863    0.000000
   154  Si    c     0.868921    0.687901    0.218863    0.000000
   155  Si    c     0.860547    0.307927    0.732906    0.000000
   156  Si    c     0.124267    0.704910    0.732906    0.000000
   157  Si    c     0.615893    0.824936    0.718863    0.000000
   158  Si    c     0.368921    0.187901    0.718863    0.000000
   159  Si    c     0.360547    0.807927    0.232906    0.000000
   160  Si    c     0.624267    0.204910    0.232906    0.000000
   161  Si    c     0.984520    0.393012    0.145708    0.000000
   162  Si    c     0.000294    0.619825    0.145708    0.000000
   163  Si    c     0.984873    0.392687    0.832200    0.000000
   164  Si    c     0.999940    0.620150    0.832200    0.000000
   165  Si    c     0.484520    0.893012    0.645708    0.000000
   166  Si    c     0.500294    0.119825    0.645708    0.000000
   167  Si    c     0.484873    0.892687    0.332200    0.000000
   168  Si    c     0.499940    0.120150    0.332200    0.000000
   169  O     s     0.747679    0.989364    0.171537    0.000000
   170  O     s     0.237134    0.023473    0.171537    0.000000
   171  O     s     0.265461    0.013964    0.921151    0.000000
   172  O     s     0.719352    0.998873    0.921151    0.000000
   173  O     s     0.247679    0.489364    0.671537    0.000000
   174  O     s     0.737134    0.523473    0.671537    0.000000
   175  O     s     0.765461    0.513964    0.421151    0.000000
   176  O     s     0.219352    0.498873    0.421151    0.000000
   177  O     s     0.674717    0.616561    0.497152    0.000000
   178  O     s     0.310096    0.396276    0.497152    0.000000
   179  O     s     0.309143    0.593209    0.504742    0.000000
   180  O     s     0.675670    0.419628    0.504742    0.000000
   181  O     s     0.174717    0.116561    0.997152    0.000000
   182  O     s     0.810096    0.896276    0.997152    0.000000
   183  O     s     0.809143    0.093209    0.004742    0.000000
   184  O     s     0.175670    0.919628    0.004742    0.000000
   185  O     s     0.641316    0.933716    0.243512    0.000000
   186  O     s     0.343497    0.079121    0.243512    0.000000
   187  O     s     0.314690    0.898584    0.747007    0.000000
   188  O     s     0.670123    0.114253    0.747007    0.000000
   189  O     s     0.141316    0.433716    0.743512    0.000000
   190  O     s     0.843497    0.579121    0.743512    0.000000
   191  O     s     0.814690    0.398584    0.247007    0.000000
   192  O     s     0.170123    0.614253    0.247007    0.000000
   193  O     s     0.546273    0.834782    0.292338    0.000000
   194  O     s     0.438540    0.178055    0.292338    0.000000
   195  O     s     0.427922    0.848323    0.722137    0.000000
   196  O     s     0.556891    0.164514    0.722137    0.000000
   197  O     s     0.046273    0.334782    0.792338    0.000000
   198  O     s     0.938540    0.678055    0.792338    0.000000
   199  O     s     0.927922    0.348323    0.222137    0.000000
   200  O     s     0.056891    0.664514    0.222137    0.000000
   201  O     s     0.621445    0.779142    0.095893    0.000000
   202  O     s     0.363368    0.233695    0.095893    0.000000
   203  O     s     0.344549    0.733062    0.839418    0.000000
   204  O     s     0.640265    0.279775    0.839418    0.000000
   205  O     s     0.121445    0.279142    0.595893    0.000000
   206  O     s     0.863368    0.733695    0.595893    0.000000
   207  O     s     0.844549    0.233062    0.339418    0.000000
   208  O     s     0.140265    0.779775    0.339418    0.000000
   209  O     s     0.327498    0.248629    0.337183    0.000000
   210  O     s     0.657315    0.764208    0.337183    0.000000
   211  O     s     0.637855    0.250566    0.584841    0.000000
   212  O     s     0.346958    0.762271    0.584841    0.000000
   213  O     s     0.827498    0.748629    0.837183    0.000000
   214  O     s     0.157315    0.264208    0.837183    0.000000
   215  O     s     0.137855    0.750566    0.084841    0.000000
   216  O     s     0.846958    0.262271    0.084841    0.000000
   217  O     s     0.246555    0.484372    0.170834    0.000000
   218  O     s     0.738259    0.528465    0.170834    0.000000
   219  O     s     0.764056    0.525420    0.920228    0.000000
   220  O     s     0.220757    0.487417    0.920228    0.000000
   221  O     s     0.746555    0.984372    0.670834    0.000000
   222  O     s     0.238259    0.028465    0.670834    0.000000
   223  O     s     0.264056    0.025420    0.420228    0.000000
   224  O     s     0.720757    0.987417    0.420228    0.000000
   225  O     s     0.166211    0.111863    0.501356    0.000000
   226  O     s     0.818602    0.900974    0.501356    0.000000
   227  O     s     0.805270    0.098122    0.505642    0.000000
   228  O     s     0.179543    0.914715    0.505642    0.000000
   229  O     s     0.666211    0.611863    0.001356    0.000000
   230  O     s     0.318602    0.400974    0.001356    0.000000
   231  O     s     0.305270    0.598122    0.005642    0.000000
   232  O     s     0.679543    0.414715    0.005642    0.000000
   233  O     s     0.140651    0.430119    0.257146    0.000000
   234  O     s     0.844162    0.582718    0.257146    0.000000
   235  O     s     0.813863    0.397050    0.761982    0.000000
   236  O     s     0.170951    0.615787    0.761982    0.000000
   237  O     s     0.640651    0.930119    0.757146    0.000000
   238  O     s     0.344162    0.082718    0.757146    0.000000
   239  O     s     0.313863    0.897050    0.261982    0.000000
   240  O     s     0.670951    0.115787    0.261982    0.000000
   241  O     s     0.045772    0.335129    0.182276    0.000000
   242  O     s     0.939041    0.677708    0.182276    0.000000
   243  O     s     0.927773    0.346961    0.757377    0.000000
   244  O     s     0.057041    0.665876    0.757377    0.000000
   245  O     s     0.545772    0.835129    0.682276    0.000000
   246  O     s     0.439041    0.177708    0.682276    0.000000
   247  O     s     0.427773    0.846961    0.257377    0.000000
   248  O     s     0.557041    0.165876    0.257377    0.000000
   249  O     s     0.153353    0.291463    0.090233    0.000000
   250  O     s     0.831461    0.721374    0.090233    0.000000
   251  O     s     0.841215    0.227963    0.836922    0.000000
   252  O     s     0.143599    0.784874    0.836922    0.000000
   253  O     s     0.653353    0.791463    0.590233    0.000000
   254  O     s     0.331461    0.221374    0.590233    0.000000
   255  O     s     0.341215    0.727963    0.336922    0.000000
   256  O     s     0.643599    0.284874    0.336922    0.000000
   257  O     s     0.855286    0.759364    0.339421    0.000000
   258  O     s     0.129527    0.253473    0.339421    0.000000
   259  O     s     0.135102    0.746388    0.589134    0.000000
   260  O     s     0.849711    0.266449    0.589134    0.000000
   261  O     s     0.355286    0.259364    0.839421    0.000000
   262  O     s     0.629527    0.753473    0.839421    0.000000
   263  O     s     0.635102    0.246388    0.089134    0.000000
   264  O     s     0.349711    0.766449    0.089134    0.000000
   265  O     s     0.992407    0.506419    0.178242    0.000000
   266  O     s     0.992407    0.506419    0.798645    0.000000
   267  O     s     0.492407    0.006419    0.678242    0.000000
   268  O     s     0.492407    0.006418    0.298645    0.000000
   269  O     s     0.973391    0.387149    0.988640    0.000000
   270  O     s     0.011423    0.625688    0.988640    0.000000
   271  O     s     0.473391    0.887149    0.488640    0.000000
   272  O     s     0.511423    0.125688    0.488640    0.000000
   273  O     s     0.740521    0.249893    0.974844    0.000000
   274  O     s     0.244292    0.762944    0.974844    0.000000
   275  O     s     0.257224    0.244338    0.979517    0.000000
   276  O     s     0.727589    0.768499    0.979517    0.000000
   277  O     s     0.240521    0.749893    0.474844    0.000000
   278  O     s     0.744292    0.262944    0.474844    0.000000
   279  O     s     0.757224    0.744338    0.479517    0.000000
   280  O     s     0.227589    0.268499    0.479517    0.000000
--------------------------------------------------------------------------------

  Final Cartesian lattice vectors (Angstroms) :

       21.676151    0.000385    0.000000
        0.215599   13.538445   -0.000000
       -0.000000    0.000000   10.013117


  Final cell parameters and derivatives :

--------------------------------------------------------------------------------
       a           21.676151 Angstrom     dE/de1(xx)     0.003250 eV/strain
       b           13.540162 Angstrom     dE/de2(yy)     0.001441 eV/strain
       c           10.013117 Angstrom     dE/de3(zz)     0.001508 eV/strain
       alpha       90.000000 Degrees      dE/de4(yz)    -0.000000 eV/strain
       beta        90.000000 Degrees      dE/de5(xz)     0.000001 eV/strain
       gamma       89.086626 Degrees      dE/de6(xy)    -0.000166 eV/strain
--------------------------------------------------------------------------------

  Primitive cell volume =          2938.462332 Angs**3

  Density of cell =      1.901630 g/cm**3

  Non-primitive cell volume =          2938.462332 Angs**3


  Final internal derivatives :

--------------------------------------------------------------------------------
   No.  Atomic          a             b             c           Radius
        Label          (eV)          (eV)          (eV)        (eV/Angs)
--------------------------------------------------------------------------------
      1 O     c      -0.001147      0.000304     -0.000314      0.000000
      2 O     c       0.001146     -0.000303     -0.000315      0.000000
      3 O     c      -0.001062     -0.000020     -0.000294      0.000000
      4 O     c       0.001059      0.000020     -0.000293      0.000000
      5 O     c      -0.001147      0.000302     -0.000315      0.000000
      6 O     c       0.001146     -0.000303     -0.000315      0.000000
      7 O     c      -0.001060     -0.000020     -0.000293      0.000000
      8 O     c       0.001060      0.000020     -0.000293      0.000000
      9 O     c       0.001769      0.000169      0.000050      0.000000
     10 O     c      -0.001770     -0.000169      0.000050      0.000000
     11 O     c      -0.001583      0.000241     -0.000080      0.000000
     12 O     c       0.001583     -0.000242     -0.000080      0.000000
     13 O     c       0.001769      0.000169      0.000050      0.000000
     14 O     c      -0.001771     -0.000169      0.000050      0.000000
     15 O     c      -0.001584      0.000241     -0.000080      0.000000
     16 O     c       0.001581     -0.000241     -0.000080      0.000000
     17 O     c       0.001186     -0.000336      0.000274      0.000000
     18 O     c      -0.001178      0.000336      0.000272      0.000000
     19 O     c       0.000730      0.000314      0.000033      0.000000
     20 O     c      -0.000736     -0.000314      0.000033      0.000000
     21 O     c       0.001186     -0.000336      0.000274      0.000000
     22 O     c      -0.001187      0.000337      0.000274      0.000000
     23 O     c       0.000732      0.000314      0.000033      0.000000
     24 O     c      -0.000734     -0.000314      0.000033      0.000000
     25 O     c       0.000381      0.000734     -0.000062      0.000000
     26 O     c      -0.000380     -0.000717     -0.000067      0.000000
     27 O     c      -0.000665      0.000095     -0.000596      0.000000
     28 O     c       0.000668     -0.000095     -0.000596      0.000000
     29 O     c       0.000380      0.000737     -0.000063      0.000000
     30 O     c      -0.000379     -0.000737     -0.000062      0.000000
     31 O     c      -0.000666      0.000096     -0.000596      0.000000
     32 O     c       0.000668     -0.000096     -0.000596      0.000000
     33 O     c       0.001288     -0.000036      0.000150      0.000000
     34 O     c      -0.001285      0.000036      0.000150      0.000000
     35 O     c      -0.000786      0.000821      0.000126      0.000000
     36 O     c       0.000785     -0.000821      0.000126      0.000000
     37 O     c       0.001288     -0.000036      0.000150      0.000000
     38 O     c      -0.001289      0.000036      0.000150      0.000000
     39 O     c      -0.000786      0.000821      0.000126      0.000000
     40 O     c       0.000785     -0.000821      0.000126      0.000000
     41 O     c       0.000482     -0.000444      0.000320      0.000000
     42 O     c      -0.000480      0.000444      0.000321      0.000000
     43 O     c       0.001097      0.000110      0.000156      0.000000
     44 O     c      -0.001099     -0.000111      0.000157      0.000000
     45 O     c       0.000477     -0.000444      0.000322      0.000000
     46 O     c      -0.000479      0.000444      0.000322      0.000000
     47 O     c       0.001096      0.000110      0.000157      0.000000
     48 O     c      -0.001098     -0.000111      0.000157      0.000000
     49 O     c      -0.001012      0.000417     -0.000288      0.000000
     50 O     c       0.001011     -0.000417     -0.000287      0.000000
     51 O     c      -0.000859     -0.000329     -0.000305      0.000000
     52 O     c       0.000857      0.000329     -0.000305      0.000000
     53 O     c      -0.001013      0.000417     -0.000287      0.000000
     54 O     c       0.001010     -0.000417     -0.000287      0.000000
     55 O     c      -0.000859     -0.000329     -0.000305      0.000000
     56 O     c       0.000858      0.000330     -0.000305      0.000000
     57 O     c       0.001608      0.000326      0.000030      0.000000
     58 O     c      -0.001609     -0.000326      0.000030      0.000000
     59 O     c      -0.001177      0.000172     -0.000072      0.000000
     60 O     c       0.001175     -0.000171     -0.000072      0.000000
     61 O     c       0.001609      0.000326      0.000030      0.000000
     62 O     c      -0.001608     -0.000326      0.000029      0.000000
     63 O     c      -0.001177      0.000171     -0.000072      0.000000
     64 O     c       0.001177     -0.000172     -0.000072      0.000000
     65 O     c       0.001160     -0.000420     -0.000222      0.000000
     66 O     c      -0.001160      0.000421     -0.000222      0.000000
     67 O     c       0.000728      0.000344     -0.000103      0.000000
     68 O     c      -0.000730     -0.000344     -0.000103      0.000000
     69 O     c       0.001159     -0.000420     -0.000222      0.000000
     70 O     c      -0.001163      0.000420     -0.000222      0.000000
     71 O     c       0.000727      0.000344     -0.000103      0.000000
     72 O     c      -0.000724     -0.000345     -0.000101      0.000000
     73 O     c       0.000265      0.000721     -0.000060      0.000000
     74 O     c      -0.000262     -0.000721     -0.000060      0.000000
     75 O     c      -0.000820      0.000087      0.000429      0.000000
     76 O     c       0.000822     -0.000087      0.000429      0.000000
     77 O     c       0.000266      0.000722     -0.000060      0.000000
     78 O     c      -0.000265     -0.000721     -0.000061      0.000000
     79 O     c      -0.000818      0.000087      0.000430      0.000000
     80 O     c       0.000817     -0.000093      0.000438      0.000000
     81 O     c      -0.000135     -0.000322      0.000056      0.000000
     82 O     c       0.000133      0.000323      0.000056      0.000000
     83 O     c      -0.000561      0.000931      0.000215      0.000000
     84 O     c       0.000559     -0.000930      0.000216      0.000000
     85 O     c      -0.000136     -0.000322      0.000056      0.000000
     86 O     c       0.000134      0.000323      0.000057      0.000000
     87 O     c      -0.000562      0.000930      0.000216      0.000000
     88 O     c       0.000564     -0.000931      0.000218      0.000000
     89 O     c      -0.000941     -0.000545      0.000269      0.000000
     90 O     c       0.000940      0.000546      0.000268      0.000000
     91 O     c       0.001268      0.000120      0.000279      0.000000
     92 O     c      -0.001269     -0.000120      0.000279      0.000000
     93 O     c      -0.000942     -0.000545      0.000268      0.000000
     94 O     c       0.000940      0.000545      0.000268      0.000000
     95 O     c       0.001271      0.000120      0.000279      0.000000
     96 O     c      -0.001270     -0.000120      0.000280      0.000000
     97 O     c       0.000000      0.000000     -0.000651      0.000000
     98 O     c       0.000000     -0.000000      0.000646      0.000000
     99 O     c       0.000007      0.000001     -0.000651      0.000000
    100 O     c      -0.000004     -0.000004      0.000648      0.000000
    101 O     c       0.000761      0.000302      0.000008      0.000000
    102 O     c      -0.000760     -0.000302      0.000008      0.000000
    103 O     c       0.000767      0.000301      0.000008      0.000000
    104 O     c      -0.000764     -0.000298      0.000005      0.000000
    105 O     c       0.000091      0.000102      0.000017      0.000000
    106 O     c      -0.000092     -0.000102      0.000016      0.000000
    107 O     c      -0.000306      0.000363     -0.000037      0.000000
    108 O     c       0.000307     -0.000363     -0.000036      0.000000
    109 O     c       0.000091      0.000102      0.000017      0.000000
    110 O     c      -0.000091     -0.000102      0.000016      0.000000
    111 O     c      -0.000308      0.000362     -0.000036      0.000000
    112 O     c       0.000309     -0.000362     -0.000035      0.000000
    113 Si    c       0.000132     -0.000105     -0.000012      0.000000
    114 Si    c      -0.000138      0.000102     -0.000013      0.000000
    115 Si    c      -0.000230      0.000097     -0.000252      0.000000
    116 Si    c       0.000225     -0.000097     -0.000252      0.000000
    117 Si    c       0.000132     -0.000106     -0.000012      0.000000
    118 Si    c      -0.000135      0.000105     -0.000012      0.000000
    119 Si    c      -0.000229      0.000097     -0.000252      0.000000
    120 Si    c       0.000225     -0.000097     -0.000252      0.000000
    121 Si    c       0.001187      0.000074     -0.000131      0.000000
    122 Si    c      -0.001187     -0.000074     -0.000131      0.000000
    123 Si    c       0.001184      0.000074     -0.000131      0.000000
    124 Si    c      -0.001189     -0.000074     -0.000132      0.000000
    125 Si    c       0.001187     -0.000178     -0.000158      0.000000
    126 Si    c      -0.001192      0.000178     -0.000158      0.000000
    127 Si    c       0.001189     -0.000178     -0.000158      0.000000
    128 Si    c      -0.001191      0.000178     -0.000158      0.000000
    129 Si    c       0.001576      0.000263      0.000029      0.000000
    130 Si    c      -0.001576     -0.000262      0.000029      0.000000
    131 Si    c      -0.001154      0.000318      0.000052      0.000000
    132 Si    c       0.001154     -0.000318      0.000052      0.000000
    133 Si    c       0.001573      0.000263      0.000029      0.000000
    134 Si    c      -0.001577     -0.000263      0.000029      0.000000
    135 Si    c      -0.001157      0.000318      0.000052      0.000000
    136 Si    c       0.001152     -0.000319      0.000052      0.000000
    137 Si    c       0.000975      0.000454      0.000332      0.000000
    138 Si    c      -0.000989     -0.000449      0.000329      0.000000
    139 Si    c      -0.000672      0.000466     -0.000113      0.000000
    140 Si    c       0.000672     -0.000469     -0.000114      0.000000
    141 Si    c       0.000971      0.000455      0.000331      0.000000
    142 Si    c      -0.000975     -0.000455      0.000331      0.000000
    143 Si    c      -0.000672      0.000468     -0.000113      0.000000
    144 Si    c       0.000668     -0.000468     -0.000114      0.000000
    145 Si    c       0.000620      0.000187      0.000030      0.000000
    146 Si    c      -0.000624     -0.000186      0.000030      0.000000
    147 Si    c      -0.001274      0.000353      0.000090      0.000000
    148 Si    c       0.001270     -0.000353      0.000090      0.000000
    149 Si    c       0.000622      0.000186      0.000030      0.000000
    150 Si    c      -0.000625     -0.000185      0.000030      0.000000
    151 Si    c      -0.001273      0.000353      0.000089      0.000000
    152 Si    c       0.001270     -0.000355      0.000090      0.000000
    153 Si    c       0.001064      0.000575     -0.000076      0.000000
    154 Si    c      -0.001069     -0.000576     -0.000075      0.000000
    155 Si    c      -0.000967      0.000376      0.000370      0.000000
    156 Si    c       0.000963     -0.000376      0.000370      0.000000
    157 Si    c       0.001066      0.000576     -0.000076      0.000000
    158 Si    c      -0.001065     -0.000574     -0.000075      0.000000
    159 Si    c      -0.000965      0.000375      0.000370      0.000000
    160 Si    c       0.000955     -0.000379      0.000373      0.000000
    161 Si    c       0.000105      0.000613     -0.000468      0.000000
    162 Si    c      -0.000106     -0.000613     -0.000468      0.000000
    163 Si    c       0.000248      0.000629      0.000425      0.000000
    164 Si    c      -0.000248     -0.000629      0.000425      0.000000
    165 Si    c       0.000115      0.000612     -0.000469      0.000000
    166 Si    c      -0.000101     -0.000613     -0.000466      0.000000
    167 Si    c       0.000251      0.000635      0.000423      0.000000
    168 Si    c       0.000000      0.000000      0.000000      0.000000
    169 O     s       0.001950     -0.000379      0.000443      0.000000
    170 O     s      -0.001946      0.000379      0.000444      0.000000
    171 O     s       0.001812      0.000056      0.000444      0.000000
    172 O     s      -0.001806     -0.000057      0.000443      0.000000
    173 O     s       0.001949     -0.000378      0.000443      0.000000
    174 O     s      -0.001948      0.000378      0.000443      0.000000
    175 O     s       0.001810      0.000057      0.000444      0.000000
    176 O     s      -0.001808     -0.000056      0.000444      0.000000
    177 O     s      -0.002789     -0.000494     -0.000052      0.000000
    178 O     s       0.002791      0.000494     -0.000053      0.000000
    179 O     s       0.002637     -0.000543      0.000100      0.000000
    180 O     s      -0.002637      0.000544      0.000100      0.000000
    181 O     s      -0.002788     -0.000495     -0.000052      0.000000
    182 O     s       0.002792      0.000495     -0.000053      0.000000
    183 O     s       0.002638     -0.000544      0.000099      0.000000
    184 O     s      -0.002634      0.000543      0.000100      0.000000
    185 O     s      -0.001693      0.000647     -0.000490      0.000000
    186 O     s       0.001692     -0.000644     -0.000488      0.000000
    187 O     s      -0.001061     -0.000413      0.000021      0.000000
    188 O     s       0.001070      0.000414      0.000022      0.000000
    189 O     s      -0.001691      0.000648     -0.000490      0.000000
    190 O     s       0.001695     -0.000648     -0.000489      0.000000
    191 O     s      -0.001064     -0.000414      0.000021      0.000000
    192 O     s       0.001067      0.000414      0.000021      0.000000
    193 O     s      -0.000899     -0.001361     -0.000076      0.000000
    194 O     s       0.000885      0.001345     -0.000071      0.000000
    195 O     s       0.001163     -0.000280      0.000994      0.000000
    196 O     s      -0.001171      0.000281      0.000996      0.000000
    197 O     s      -0.000897     -0.001364     -0.000075      0.000000
    198 O     s       0.000896      0.001364     -0.000075      0.000000
    199 O     s       0.001169     -0.000282      0.000995      0.000000
    200 O     s      -0.001168      0.000281      0.000995      0.000000
    201 O     s      -0.002201     -0.000112     -0.000380      0.000000
    202 O     s       0.002200      0.000110     -0.000377      0.000000
    203 O     s       0.001496     -0.001283     -0.000028      0.000000
    204 O     s      -0.001495      0.001285     -0.000028      0.000000
    205 O     s      -0.002200     -0.000112     -0.000379      0.000000
    206 O     s       0.002202      0.000112     -0.000379      0.000000
    207 O     s       0.001497     -0.001284     -0.000027      0.000000
    208 O     s      -0.001493      0.001284     -0.000028      0.000000
    209 O     s      -0.000458      0.000844     -0.000407      0.000000
    210 O     s       0.000463     -0.000848     -0.000408      0.000000
    211 O     s      -0.001732      0.000104     -0.000317      0.000000
    212 O     s       0.001736     -0.000102     -0.000318      0.000000
    213 O     s      -0.000459      0.000848     -0.000408      0.000000
    214 O     s       0.000463     -0.000848     -0.000408      0.000000
    215 O     s      -0.001731      0.000103     -0.000318      0.000000
    216 O     s       0.001735     -0.000103     -0.000318      0.000000
    217 O     s       0.001786     -0.000536      0.000368      0.000000
    218 O     s      -0.001785      0.000536      0.000367      0.000000
    219 O     s       0.001300      0.000441      0.000414      0.000000
    220 O     s      -0.001298     -0.000441      0.000414      0.000000
    221 O     s       0.001788     -0.000536      0.000368      0.000000
    222 O     s      -0.001783      0.000535      0.000368      0.000000
    223 O     s       0.001301      0.000442      0.000413      0.000000
    224 O     s      -0.001296     -0.000443      0.000414      0.000000
    225 O     s      -0.002620     -0.000638     -0.000064      0.000000
    226 O     s       0.002622      0.000638     -0.000063      0.000000
    227 O     s       0.002265     -0.000304      0.000062      0.000000
    228 O     s      -0.002261      0.000304      0.000061      0.000000
    229 O     s      -0.002622     -0.000638     -0.000063      0.000000
    230 O     s       0.002621      0.000637     -0.000063      0.000000
    231 O     s       0.002264     -0.000304      0.000061      0.000000
    232 O     s      -0.002265      0.000304      0.000061      0.000000
    233 O     s      -0.001784      0.000601      0.000450      0.000000
    234 O     s       0.001787     -0.000601      0.000450      0.000000
    235 O     s      -0.000995     -0.000437      0.000116      0.000000
    236 O     s       0.000999      0.000437      0.000115      0.000000
    237 O     s      -0.001782      0.000601      0.000451      0.000000
    238 O     s       0.001789     -0.000602      0.000450      0.000000
    239 O     s      -0.000994     -0.000435      0.000116      0.000000
    240 O     s       0.001002      0.000436      0.000113      0.000000
    241 O     s      -0.000895     -0.001283      0.000229      0.000000
    242 O     s       0.000895      0.001283      0.000229      0.000000
    243 O     s       0.000994     -0.000320     -0.000845      0.000000
    244 O     s      -0.000994      0.000320     -0.000845      0.000000
    245 O     s      -0.000899     -0.001284      0.000230      0.000000
    246 O     s       0.000892      0.001282      0.000229      0.000000
    247 O     s       0.000990     -0.000319     -0.000846      0.000000
    248 O     s      -0.000999      0.000329     -0.000857      0.000000
    249 O     s       0.000139      0.000483     -0.000191      0.000000
    250 O     s      -0.000135     -0.000483     -0.000192      0.000000
    251 O     s       0.001241     -0.001401     -0.000334      0.000000
    252 O     s      -0.001237      0.001401     -0.000334      0.000000
    253 O     s       0.000140      0.000483     -0.000192      0.000000
    254 O     s      -0.000135     -0.000485     -0.000193      0.000000
    255 O     s       0.001241     -0.001400     -0.000334      0.000000
    256 O     s      -0.001238      0.001406     -0.000335      0.000000
    257 O     s       0.001630      0.001168     -0.000129      0.000000
    258 O     s      -0.001627     -0.001168     -0.000129      0.000000
    259 O     s      -0.002196     -0.000036     -0.000433      0.000000
    260 O     s       0.002200      0.000035     -0.000432      0.000000
    261 O     s       0.001630      0.001167     -0.000129      0.000000
    262 O     s      -0.001628     -0.001168     -0.000129      0.000000
    263 O     s      -0.002198     -0.000034     -0.000434      0.000000
    264 O     s       0.002199      0.000036     -0.000433      0.000000
    265 O     s      -0.000000     -0.000000      0.001158      0.000000
    266 O     s      -0.000000      0.000000     -0.001138      0.000000
    267 O     s      -0.000012      0.000001      0.001158      0.000000
    268 O     s       0.000003      0.000009     -0.001137      0.000000
    269 O     s      -0.001184     -0.000701      0.000014      0.000000
    270 O     s       0.001183      0.000701      0.000014      0.000000
    271 O     s      -0.001195     -0.000699      0.000015      0.000000
    272 O     s       0.001186      0.000698      0.000019      0.000000
    273 O     s      -0.000217     -0.000125     -0.000062      0.000000
    274 O     s       0.000219      0.000126     -0.000062      0.000000
    275 O     s       0.000372     -0.000497      0.000050      0.000000
    276 O     s      -0.000371      0.000496      0.000049      0.000000
    277 O     s      -0.000218     -0.000125     -0.000062      0.000000
    278 O     s       0.000220      0.000126     -0.000061      0.000000
    279 O     s       0.000372     -0.000496      0.000049      0.000000
    280 O     s      -0.000371      0.000496      0.000048      0.000000
--------------------------------------------------------------------------------
  Maximum abs         0.002792      0.001406      0.001158      0.000000
--------------------------------------------------------------------------------


  Time to end of optimisation =       2.2256 seconds


  Peak dynamic memory used =       5.15 MB 


  Timing analysis for GULP :

--------------------------------------------------------------------------------
  Task / Subroutine                                          Time (Seconds)
--------------------------------------------------------------------------------
  Calculation of reciprocal space energy and derivatives          0.1611
  Calculation of real space energy and derivatives                1.1910
  Calculation of three-body energy and derivatives                0.1054
  Calculation and manipulation of Hessian matrix                  0.5650
  Calculation of matrix inversion                                 0.1040
  Symmetry generation of equivalent positions                     0.0002
  Global summation overhead                                       0.0658
--------------------------------------------------------------------------------
  Total CPU time                                                  2.2256
--------------------------------------------------------------------------------


  Dump file written as ReferenceDataBase/ECNU-23b.grs
  CIF file written as ReferenceDataBase/ECNU-23b_opt.cif


  Job Finished at 14:14.06 20th April      2023                               

