********************************************************************************
*                       GENERAL UTILITY LATTICE PROGRAM                        *
*                                 Julian Gale                                  *
*                       Curtin Institute for Computation                       *
*                    School of Molecular and Life Sciences                     *
*                    Curtin University, Western Australia                      *
********************************************************************************
* Version = 6.1.2 * Last modified =   3rd November 2022                        *
********************************************************************************
*  optimise     - perform optimisation run                                     *
*  conp         - constant pressure calculation                                *
*  nosymmetry   - turn off symmetry after initial structure generation         *
********************************************************************************

  Job Started  at 14:13.40 20th April      2023                               

  Number of CPUs =     8


  Total number of configurations input =      1

********************************************************************************
*  Input for Configuration =   1 : ReferenceDataBase/ECNU-13a                  *
********************************************************************************

  Formula = O112Si56                                                    

  Number of irreducible atoms/shells =     280


  Total number atoms/shells =     280

  Dimensionality = 3               :  Bulk   



  Cartesian lattice vectors (Angstroms) :

       21.891500    0.000000    0.000000
       -0.113587   12.534385    0.000000
       -0.023287    0.004371   11.413375

  Cell parameters (Angstroms/Degrees):

  a =      21.8915    alpha =  89.9770
  b =      12.5349    beta  =  90.1169
  c =      11.4134    gamma =  90.5192

  Initial cell volume =        3131.790229 Angs**3

  Temperature of configuration =   0.00     K 

  Pressure of configuration =         0.000 GPa 

  Fractional coordinates of asymmetric unit :

--------------------------------------------------------------------------------
   No.  Atomic       x           y          z         Charge      Occupancy
        Label      (Frac)      (Frac)     (Frac)        (e)         (Frac)  
--------------------------------------------------------------------------------
      1 O     c    0.062523 *  0.191288 *  0.309947 *   0.86902    1.000000    
      2 O     c    0.366169 *  0.331817 *  0.273489 *   0.86902    1.000000    
      3 O     c    0.256048 *  0.381288 *  0.335432 *   0.86902    1.000000    
      4 O     c    0.149489 *  0.322977 *  0.257196 *   0.86902    1.000000    
      5 O     c    0.335778 *  0.134761 *  0.313085 *   0.86902    1.000000    
      6 O     c    0.332050 *  0.207387 *  0.098378 *   0.86902    1.000000    
      7 O     c    0.439130 *  0.184644 *  0.209263 *   0.86902    1.000000    
      8 O     c    0.115161 *  0.183933 *  0.102109 *   0.86902    1.000000    
      9 O     c    0.175075 *  0.119971 *  0.285730 *   0.86902    1.000000    
     10 Si    c    0.326740 *  0.404023 *  0.360429 *   4.00000    1.000000    
     11 Si    c    0.184349 *  0.399368 *  0.347304 *   4.00000    1.000000    
     12 Si    c    0.368179 *  0.213037 *  0.220766 *   4.00000    1.000000    
     13 Si    c    0.124849 *  0.203377 *  0.239986 *   4.00000    1.000000    
     14 Si    c    0.002599 *  0.136715 *  0.361828 *   4.00000    1.000000    
     15 O     c    0.341908 *  0.377681 *  0.495662 *   0.86902    1.000000    
     16 O     c    0.163109 *  0.371928 *  0.478766 *   0.86902    1.000000    
     17 O     c    0.257197 *  0.979603 *  0.340035 *   0.86902    1.000000    
     18 Si    c    0.327841 *  0.013659 *  0.353752 *   4.00000    1.000000    
     19 Si    c    0.187484 *  0.013185 *  0.358162 *   4.00000    1.000000    
     20 O     c    0.342894 *  0.526886 *  0.333025 *   0.86902    1.000000    
     21 O     c    0.167536 *  0.520353 *  0.315846 *   0.86902    1.000000    
     22 O     c    0.139610 *  0.018670 *  0.970263 *   0.86902    1.000000    
     23 O     c    0.308489 *  0.017560 *  0.012168 *   0.86902    1.000000    
     24 O     c    0.224202 *  0.167846 *  0.007819 *   0.86902    1.000000    
     25 Si    c    0.152574 *  0.143099 *  0.990086 *   4.00000    1.000000    
     26 Si    c    0.295712 *  0.143505 *  0.998407 *   4.00000    1.000000    
     27 O     c    0.350132 *  0.003001 *  0.486058 *   0.86902    1.000000    
     28 O     c    0.171355 *  0.035156 *  0.492964 *   0.86902    1.000000    
     29 O     c    0.469690 *  0.130016 *  0.000062 *   0.86902    1.000000    
     30 O     c    0.499855 *  0.007660 *  0.176625 *   0.86902    1.000000    
     31 Si    c    0.491410 *  0.129109 *  0.133996 *   4.00000    1.000000    
     32 O     c    0.009856 *  0.010550 *  0.350357 *   0.86902    1.000000    
     33 O     c    0.994386 *  0.848895 *  0.494620 *   0.86902    1.000000    
     34 O     c    0.927802 *  0.866452 *  0.302383 *   0.86902    1.000000    
     35 O     c    0.633651 *  0.690949 *  0.271140 *   0.86902    1.000000    
     36 O     c    0.741335 *  0.646453 *  0.351694 *   0.86902    1.000000    
     37 O     c    0.854009 *  0.700494 *  0.299125 *   0.86902    1.000000    
     38 O     c    0.644331 *  0.889400 *  0.330486 *   0.86902    1.000000    
     39 O     c    0.670283 *  0.835285 *  0.117207 *   0.86902    1.000000    
     40 O     c    0.555444 *  0.823919 *  0.193989 *   0.86902    1.000000    
     41 O     c    0.864583 *  0.814532 *  0.112247 *   0.86902    1.000000    
     42 O     c    0.810989 *  0.897924 *  0.293203 *   0.86902    1.000000    
     43 Si    c    0.669949 *  0.619551 *  0.363786 *   4.00000    1.000000    
     44 Si    c    0.811929 *  0.624178 *  0.377496 *   4.00000    1.000000    
     45 Si    c    0.626058 *  0.811112 *  0.225374 *   4.00000    1.000000    
     46 Si    c    0.865119 *  0.819539 *  0.252735 *   4.00000    1.000000    
     47 Si    c    0.993176 *  0.886472 *  0.359721 *   4.00000    1.000000    
     48 O     c    0.647756 *  0.642490 *  0.495969 *   0.86902    1.000000    
     49 O     c    0.826555 *  0.648242 *  0.512865 *   0.86902    1.000000    
     50 O     c    0.729150 *  0.037108 *  0.351875 *   0.86902    1.000000    
     51 Si    c    0.658263 *  0.008678 *  0.371165 *   4.00000    1.000000    
     52 Si    c    0.799250 *  0.005899 *  0.364831 *   4.00000    1.000000    
     53 O     c    0.656625 *  0.496875 *  0.331473 *   0.86902    1.000000    
     54 O     c    0.828045 *  0.502722 *  0.346510 *   0.86902    1.000000    
     55 O     c    0.850054 *  0.001500 *  0.021368 *   0.86902    1.000000    
     56 O     c    0.681175 *  0.002611 *  0.979463 *   0.86902    1.000000    
     57 O     c    0.765462 *  0.852325 *  0.983813 *   0.86902    1.000000    
     58 Si    c    0.837090 *  0.877071 *  0.001545 *   4.00000    1.000000    
     59 Si    c    0.693952 *  0.876666 *  0.993224 *   4.00000    1.000000    
     60 O     c    0.639532 *  0.017169 *  0.505573 *   0.86902    1.000000    
     61 O     c    0.818309 *  0.985015 *  0.498667 *   0.86902    1.000000    
     62 O     c    0.519974 *  0.890154 *  0.991570 *   0.86902    1.000000    
     63 Si    c    0.502934 *  0.887350 *  0.127769 *   4.00000    1.000000    
     64 O     c    0.995278 *  0.171275 *  0.497011 *   0.86902    1.000000    
     65 O     c    0.947376 *  0.200067 *  0.705901 *   0.86902    1.000000    
     66 O     c    0.623871 *  0.295216 *  0.707424 *   0.86902    1.000000    
     67 O     c    0.736024 *  0.352537 *  0.661721 *   0.86902    1.000000    
     68 O     c    0.846646 *  0.306500 *  0.730770 *   0.86902    1.000000    
     69 O     c    0.621168 *  0.084069 *  0.714868 *   0.86902    1.000000    
     70 O     c    0.666803 *  0.193921 *  0.890801 *   0.86902    1.000000    
     71 O     c    0.549695 *  0.196000 *  0.844688 *   0.86902    1.000000    
     72 O     c    0.877443 *  0.166193 *  0.888544 *   0.86902    1.000000    
     73 O     c    0.843093 *  0.103543 *  0.677803 *   0.86902    1.000000    
     74 Si    c    0.665632 *  0.372492 *  0.630251 *   4.00000    1.000000    
     75 Si    c    0.807264 *  0.377735 *  0.643420 *   4.00000    1.000000    
     76 Si    c    0.616484 *  0.192211 *  0.788650 *   4.00000    1.000000    
     77 Si    c    0.878038 *  0.193233 *  0.751378 *   4.00000    1.000000    
     78 Si    c    0.996488 *  0.133699 *  0.631910 *   4.00000    1.000000    
     79 O     c    0.653864 *  0.346798 *  0.493980 *   0.86902    1.000000    
     80 O     c    0.825252 *  0.353353 *  0.509475 *   0.86902    1.000000    
     81 O     c    0.732467 *  0.040567 *  0.651596 *   0.86902    1.000000    
     82 Si    c    0.661823 *  0.006511 *  0.637879 *   4.00000    1.000000    
     83 Si    c    0.802180 *  0.006985 *  0.633469 *   4.00000    1.000000    
     84 O     c    0.646770 *  0.493284 *  0.658606 *   0.86902    1.000000    
     85 O     c    0.822129 *  0.499818 *  0.675785 *   0.86902    1.000000    
     86 O     c    0.769585 *  0.151374 *  0.987460 *   0.86902    1.000000    
     87 Si    c    0.840850 *  0.126453 *  0.002095 *   4.00000    1.000000    
     88 Si    c    0.698011 *  0.127449 *  0.994104 *   4.00000    1.000000    
     89 O     c    0.489809 *  0.012510 *  0.815006 *   0.86902    1.000000    
     90 Si    c    0.486730 *  0.132821 *  0.863862 *   4.00000    1.000000    
     91 O     c    0.979808 *  0.009620 *  0.641274 *   0.86902    1.000000    
     92 O     c    0.042483 *  0.841046 *  0.706843 *   0.86902    1.000000    
     93 O     c    0.357528 *  0.717784 *  0.718147 *   0.86902    1.000000    
     94 O     c    0.246672 *  0.667855 *  0.649850 *   0.86902    1.000000    
     95 O     c    0.132977 *  0.710352 *  0.698013 *   0.86902    1.000000    
     96 O     c    0.371215 *  0.926082 *  0.689439 *   0.86902    1.000000    
     97 O     c    0.316086 *  0.850955 *  0.874395 *   0.86902    1.000000    
     98 O     c    0.435263 *  0.825352 *  0.843152 *   0.86902    1.000000    
     99 O     c    0.120480 *  0.831885 *  0.879234 *   0.86902    1.000000    
    100 O     c    0.152180 *  0.916471 *  0.676326 *   0.86902    1.000000    
    101 Si    c    0.318013 *  0.645461 *  0.630945 *   4.00000    1.000000    
    102 Si    c    0.176800 *  0.640656 *  0.618156 *   4.00000    1.000000    
    103 Si    c    0.369292 *  0.829702 *  0.781686 *   4.00000    1.000000    
    104 Si    c    0.112564 *  0.826471 *  0.739731 *   4.00000    1.000000    
    105 Si    c    0.987065 *  0.883455 *  0.629803 *   4.00000    1.000000    
    106 O     c    0.335800 *  0.673372 *  0.497651 *   0.86902    1.000000    
    107 O     c    0.164412 *  0.666817 *  0.482156 *   0.86902    1.000000    
    108 O     c    0.260514 *  0.983063 *  0.639756 *   0.86902    1.000000    
    109 Si    c    0.331401 *  0.011492 *  0.620466 *   4.00000    1.000000    
    110 Si    c    0.190414 *  0.014272 *  0.626800 *   4.00000    1.000000    
    111 O     c    0.333039 *  0.523296 *  0.660159 *   0.86902    1.000000    
    112 O     c    0.161619 *  0.517449 *  0.645122 *   0.86902    1.000000    
    113 O     c    0.220079 *  0.868797 *  0.004171 *   0.86902    1.000000    
    114 Si    c    0.148814 *  0.893717 *  0.989536 *   4.00000    1.000000    
    115 Si    c    0.291653 *  0.892721 *  0.997528 *   4.00000    1.000000    
    116 Si    c    0.498254 *  0.891062 *  0.857635 *   4.00000    1.000000    
    117 O     c    0.927141 *  0.828882 *  0.681684 *   0.86902    1.000000    
    118 O     c    0.623495 *  0.688354 *  0.718142 *   0.86902    1.000000    
    119 O     c    0.733617 *  0.638882 *  0.656200 *   0.86902    1.000000    
    120 O     c    0.840175 *  0.697194 *  0.734435 *   0.86902    1.000000    
    121 O     c    0.653886 *  0.885410 *  0.678547 *   0.86902    1.000000    
    122 O     c    0.657614 *  0.812783 *  0.893253 *   0.86902    1.000000    
    123 O     c    0.550534 *  0.835526 *  0.782368 *   0.86902    1.000000    
    124 O     c    0.874502 *  0.836238 *  0.889522 *   0.86902    1.000000    
    125 O     c    0.814589 *  0.900199 *  0.705901 *   0.86902    1.000000    
    126 Si    c    0.662924 *  0.616147 *  0.631202 *   4.00000    1.000000    
    127 Si    c    0.805315 *  0.620803 *  0.644327 *   4.00000    1.000000    
    128 Si    c    0.621485 *  0.807134 *  0.770865 *   4.00000    1.000000    
    129 Si    c    0.864815 *  0.816793 *  0.751645 *   4.00000    1.000000    
    130 O     c    0.061862 *  0.153719 *  0.689248 *   0.86902    1.000000    
    131 O     c    0.356014 *  0.329222 *  0.720491 *   0.86902    1.000000    
    132 O     c    0.248329 *  0.373717 *  0.639937 *   0.86902    1.000000    
    133 O     c    0.135655 *  0.319677 *  0.692507 *   0.86902    1.000000    
    134 O     c    0.345333 *  0.130771 *  0.661145 *   0.86902    1.000000    
    135 O     c    0.319381 *  0.184886 *  0.874424 *   0.86902    1.000000    
    136 O     c    0.434220 *  0.196252 *  0.797642 *   0.86902    1.000000    
    137 O     c    0.125081 *  0.205639 *  0.879384 *   0.86902    1.000000    
    138 O     c    0.178675 *  0.122247 *  0.698428 *   0.86902    1.000000    
    139 Si    c    0.319715 *  0.400619 *  0.627845 *   4.00000    1.000000    
    140 Si    c    0.177735 *  0.395993 *  0.614136 *   4.00000    1.000000    
    141 Si    c    0.363605 *  0.209058 *  0.766258 *   4.00000    1.000000    
    142 Si    c    0.124545 *  0.200631 *  0.738896 *   4.00000    1.000000    
    143 O     c    0.042288 *  0.820103 *  0.285730 *   0.86902    1.000000    
    144 O     c    0.365793 *  0.724954 *  0.284207 *   0.86902    1.000000    
    145 O     c    0.253640 *  0.667633 *  0.329911 *   0.86902    1.000000    
    146 O     c    0.143019 *  0.713671 *  0.260861 *   0.86902    1.000000    
    147 O     c    0.368496 *  0.936102 *  0.276763 *   0.86902    1.000000    
    148 O     c    0.322861 *  0.826249 *  0.100830 *   0.86902    1.000000    
    149 O     c    0.439969 *  0.824171 *  0.146943 *   0.86902    1.000000    
    150 O     c    0.112222 *  0.853977 *  0.103087 *   0.86902    1.000000    
    151 O     c    0.146571 *  0.916628 *  0.313828 *   0.86902    1.000000    
    152 Si    c    0.324032 *  0.647679 *  0.361380 *   4.00000    1.000000    
    153 Si    c    0.182400 *  0.642436 *  0.348211 *   4.00000    1.000000    
    154 Si    c    0.373180 *  0.827959 *  0.202981 *   4.00000    1.000000    
    155 Si    c    0.111626 *  0.826937 *  0.240253 *   4.00000    1.000000    
    156 O     c    0.947181 *  0.179124 *  0.284788 *   0.86902    1.000000    
    157 O     c    0.632136 *  0.302387 *  0.273484 *   0.86902    1.000000    
    158 O     c    0.742992 *  0.352316 *  0.341781 *   0.86902    1.000000    
    159 O     c    0.856688 *  0.309818 *  0.293618 *   0.86902    1.000000    
    160 O     c    0.618449 *  0.094089 *  0.302192 *   0.86902    1.000000    
    161 O     c    0.673578 *  0.169215 *  0.117236 *   0.86902    1.000000    
    162 O     c    0.554401 *  0.194818 *  0.148479 *   0.86902    1.000000    
    163 O     c    0.869184 *  0.188285 *  0.112397 *   0.86902    1.000000    
    164 O     c    0.837484 *  0.103699 *  0.315305 *   0.86902    1.000000    
    165 Si    c    0.671651 *  0.374710 *  0.360687 *   4.00000    1.000000    
    166 Si    c    0.812864 *  0.379515 *  0.373475 *   4.00000    1.000000    
    167 Si    c    0.620372 *  0.190469 *  0.209945 *   4.00000    1.000000    
    168 Si    c    0.877100    0.193700    0.251900     4.00000    1.000000    
    169 O     s    0.062523 *  0.191288 *  0.309947 *  -2.86902    1.000000    
    170 O     s    0.366169 *  0.331817 *  0.273489 *  -2.86902    1.000000    
    171 O     s    0.256048 *  0.381288 *  0.335432 *  -2.86902    1.000000    
    172 O     s    0.149489 *  0.322977 *  0.257196 *  -2.86902    1.000000    
    173 O     s    0.335778 *  0.134761 *  0.313085 *  -2.86902    1.000000    
    174 O     s    0.332050 *  0.207387 *  0.098378 *  -2.86902    1.000000    
    175 O     s    0.439130 *  0.184644 *  0.209263 *  -2.86902    1.000000    
    176 O     s    0.115161 *  0.183933 *  0.102109 *  -2.86902    1.000000    
    177 O     s    0.175075 *  0.119971 *  0.285730 *  -2.86902    1.000000    
    178 O     s    0.341908 *  0.377681 *  0.495662 *  -2.86902    1.000000    
    179 O     s    0.163109 *  0.371928 *  0.478766 *  -2.86902    1.000000    
    180 O     s    0.257197 *  0.979603 *  0.340035 *  -2.86902    1.000000    
    181 O     s    0.342894 *  0.526886 *  0.333025 *  -2.86902    1.000000    
    182 O     s    0.167536 *  0.520353 *  0.315846 *  -2.86902    1.000000    
    183 O     s    0.139610 *  0.018670 *  0.970263 *  -2.86902    1.000000    
    184 O     s    0.308489 *  0.017560 *  0.012168 *  -2.86902    1.000000    
    185 O     s    0.224202 *  0.167846 *  0.007819 *  -2.86902    1.000000    
    186 O     s    0.350132 *  0.003001 *  0.486058 *  -2.86902    1.000000    
    187 O     s    0.171355 *  0.035156 *  0.492964 *  -2.86902    1.000000    
    188 O     s    0.469690 *  0.130016 *  0.000062 *  -2.86902    1.000000    
    189 O     s    0.499855 *  0.007660 *  0.176625 *  -2.86902    1.000000    
    190 O     s    0.009856 *  0.010550 *  0.350357 *  -2.86902    1.000000    
    191 O     s    0.994386 *  0.848895 *  0.494620 *  -2.86902    1.000000    
    192 O     s    0.927802 *  0.866452 *  0.302383 *  -2.86902    1.000000    
    193 O     s    0.633651 *  0.690949 *  0.271140 *  -2.86902    1.000000    
    194 O     s    0.741335 *  0.646453 *  0.351694 *  -2.86902    1.000000    
    195 O     s    0.854009 *  0.700494 *  0.299125 *  -2.86902    1.000000    
    196 O     s    0.644331 *  0.889400 *  0.330486 *  -2.86902    1.000000    
    197 O     s    0.670283 *  0.835285 *  0.117207 *  -2.86902    1.000000    
    198 O     s    0.555444 *  0.823919 *  0.193989 *  -2.86902    1.000000    
    199 O     s    0.864583 *  0.814532 *  0.112247 *  -2.86902    1.000000    
    200 O     s    0.810989 *  0.897924 *  0.293203 *  -2.86902    1.000000    
    201 O     s    0.647756 *  0.642490 *  0.495969 *  -2.86902    1.000000    
    202 O     s    0.826555 *  0.648242 *  0.512865 *  -2.86902    1.000000    
    203 O     s    0.729150 *  0.037108 *  0.351875 *  -2.86902    1.000000    
    204 O     s    0.656625 *  0.496875 *  0.331473 *  -2.86902    1.000000    
    205 O     s    0.828045 *  0.502722 *  0.346510 *  -2.86902    1.000000    
    206 O     s    0.850054 *  0.001500 *  0.021368 *  -2.86902    1.000000    
    207 O     s    0.681175 *  0.002611 *  0.979463 *  -2.86902    1.000000    
    208 O     s    0.765462 *  0.852325 *  0.983813 *  -2.86902    1.000000    
    209 O     s    0.639532 *  0.017169 *  0.505573 *  -2.86902    1.000000    
    210 O     s    0.818309 *  0.985015 *  0.498667 *  -2.86902    1.000000    
    211 O     s    0.519974 *  0.890154 *  0.991570 *  -2.86902    1.000000    
    212 O     s    0.995278 *  0.171275 *  0.497011 *  -2.86902    1.000000    
    213 O     s    0.947376 *  0.200067 *  0.705901 *  -2.86902    1.000000    
    214 O     s    0.623871 *  0.295216 *  0.707424 *  -2.86902    1.000000    
    215 O     s    0.736024 *  0.352537 *  0.661721 *  -2.86902    1.000000    
    216 O     s    0.846646 *  0.306500 *  0.730770 *  -2.86902    1.000000    
    217 O     s    0.621168 *  0.084069 *  0.714868 *  -2.86902    1.000000    
    218 O     s    0.666803 *  0.193921 *  0.890801 *  -2.86902    1.000000    
    219 O     s    0.549695 *  0.196000 *  0.844688 *  -2.86902    1.000000    
    220 O     s    0.877443 *  0.166193 *  0.888544 *  -2.86902    1.000000    
    221 O     s    0.843093 *  0.103543 *  0.677803 *  -2.86902    1.000000    
    222 O     s    0.653864 *  0.346798 *  0.493980 *  -2.86902    1.000000    
    223 O     s    0.825252 *  0.353353 *  0.509475 *  -2.86902    1.000000    
    224 O     s    0.732467 *  0.040567 *  0.651596 *  -2.86902    1.000000    
    225 O     s    0.646770 *  0.493284 *  0.658606 *  -2.86902    1.000000    
    226 O     s    0.822129 *  0.499818 *  0.675785 *  -2.86902    1.000000    
    227 O     s    0.769585 *  0.151374 *  0.987460 *  -2.86902    1.000000    
    228 O     s    0.489809 *  0.012510 *  0.815006 *  -2.86902    1.000000    
    229 O     s    0.979808 *  0.009620 *  0.641274 *  -2.86902    1.000000    
    230 O     s    0.042483 *  0.841046 *  0.706843 *  -2.86902    1.000000    
    231 O     s    0.357528 *  0.717784 *  0.718147 *  -2.86902    1.000000    
    232 O     s    0.246672 *  0.667855 *  0.649850 *  -2.86902    1.000000    
    233 O     s    0.132977 *  0.710352 *  0.698013 *  -2.86902    1.000000    
    234 O     s    0.371215 *  0.926082 *  0.689439 *  -2.86902    1.000000    
    235 O     s    0.316086 *  0.850955 *  0.874395 *  -2.86902    1.000000    
    236 O     s    0.435263 *  0.825352 *  0.843152 *  -2.86902    1.000000    
    237 O     s    0.120480 *  0.831885 *  0.879234 *  -2.86902    1.000000    
    238 O     s    0.152180 *  0.916471 *  0.676326 *  -2.86902    1.000000    
    239 O     s    0.335800 *  0.673372 *  0.497651 *  -2.86902    1.000000    
    240 O     s    0.164412 *  0.666817 *  0.482156 *  -2.86902    1.000000    
    241 O     s    0.260514 *  0.983063 *  0.639756 *  -2.86902    1.000000    
    242 O     s    0.333039 *  0.523296 *  0.660159 *  -2.86902    1.000000    
    243 O     s    0.161619 *  0.517449 *  0.645122 *  -2.86902    1.000000    
    244 O     s    0.220079 *  0.868797 *  0.004171 *  -2.86902    1.000000    
    245 O     s    0.927141 *  0.828882 *  0.681684 *  -2.86902    1.000000    
    246 O     s    0.623495 *  0.688354 *  0.718142 *  -2.86902    1.000000    
    247 O     s    0.733617 *  0.638882 *  0.656200 *  -2.86902    1.000000    
    248 O     s    0.840175 *  0.697194 *  0.734435 *  -2.86902    1.000000    
    249 O     s    0.653886 *  0.885410 *  0.678547 *  -2.86902    1.000000    
    250 O     s    0.657614 *  0.812783 *  0.893253 *  -2.86902    1.000000    
    251 O     s    0.550534 *  0.835526 *  0.782368 *  -2.86902    1.000000    
    252 O     s    0.874502 *  0.836238 *  0.889522 *  -2.86902    1.000000    
    253 O     s    0.814589 *  0.900199 *  0.705901 *  -2.86902    1.000000    
    254 O     s    0.061862 *  0.153719 *  0.689248 *  -2.86902    1.000000    
    255 O     s    0.356014 *  0.329222 *  0.720491 *  -2.86902    1.000000    
    256 O     s    0.248329 *  0.373717 *  0.639937 *  -2.86902    1.000000    
    257 O     s    0.135655 *  0.319677 *  0.692507 *  -2.86902    1.000000    
    258 O     s    0.345333 *  0.130771 *  0.661145 *  -2.86902    1.000000    
    259 O     s    0.319381 *  0.184886 *  0.874424 *  -2.86902    1.000000    
    260 O     s    0.434220 *  0.196252 *  0.797642 *  -2.86902    1.000000    
    261 O     s    0.125081 *  0.205639 *  0.879384 *  -2.86902    1.000000    
    262 O     s    0.178675 *  0.122247 *  0.698428 *  -2.86902    1.000000    
    263 O     s    0.042288 *  0.820103 *  0.285730 *  -2.86902    1.000000    
    264 O     s    0.365793 *  0.724954 *  0.284207 *  -2.86902    1.000000    
    265 O     s    0.253640 *  0.667633 *  0.329911 *  -2.86902    1.000000    
    266 O     s    0.143019 *  0.713671 *  0.260861 *  -2.86902    1.000000    
    267 O     s    0.368496 *  0.936102 *  0.276763 *  -2.86902    1.000000    
    268 O     s    0.322861 *  0.826249 *  0.100830 *  -2.86902    1.000000    
    269 O     s    0.439969 *  0.824171 *  0.146943 *  -2.86902    1.000000    
    270 O     s    0.112222 *  0.853977 *  0.103087 *  -2.86902    1.000000    
    271 O     s    0.146571 *  0.916628 *  0.313828 *  -2.86902    1.000000    
    272 O     s    0.947181 *  0.179124 *  0.284788 *  -2.86902    1.000000    
    273 O     s    0.632136 *  0.302387 *  0.273484 *  -2.86902    1.000000    
    274 O     s    0.742992 *  0.352316 *  0.341781 *  -2.86902    1.000000    
    275 O     s    0.856688 *  0.309818 *  0.293618 *  -2.86902    1.000000    
    276 O     s    0.618449 *  0.094089 *  0.302192 *  -2.86902    1.000000    
    277 O     s    0.673578 *  0.169215 *  0.117236 *  -2.86902    1.000000    
    278 O     s    0.554401 *  0.194818 *  0.148479 *  -2.86902    1.000000    
    279 O     s    0.869184 *  0.188285 *  0.112397 *  -2.86902    1.000000    
    280 O     s    0.837484 *  0.103699 *  0.315305 *  -2.86902    1.000000    
--------------------------------------------------------------------------------



********************************************************************************
*  General input information                                                   *
********************************************************************************

  Species output for all configurations : 

--------------------------------------------------------------------------------
  Species    Type    Atomic    Atomic    Charge       Radii (Angs)     Library
                     Number     Mass       (e)     Cova   Ionic  VDW   Symbol
--------------------------------------------------------------------------------
    O        Core        8      16.00   0.869020   0.730  0.000  1.360 O        
    O        Shell       8       0.00  -2.869020   0.730  0.000  0.000 O        
    Si       Core       14      28.09   4.000000   1.200  0.000  2.100 Si       
--------------------------------------------------------------------------------


  Lattice summation method               =    Ewald          (3-D)
                                         =    Parry          (2-D)
                                         =    Saunders et al (1-D)
  Accuracy factor for lattice sums       =   12.000


  Analytic derivatives to be used

  Time limit = Infinity

  Maximum range for interatomic potentials =    100000.000000 Angstroms

  General interatomic potentials :

--------------------------------------------------------------------------------
Atom  Types   Potential      Parameter       Value         Units   Cutoffs(Ang)
  1     2                                                            Min /  Max 
--------------------------------------------------------------------------------
Si   c O    s Buckingham    Buckingham A     1283.9070    eV        0.000 10.000
                            Buckingham rho  0.32052000    Ang       
                            Buckingham C     10.661580    eV*Ang^6  
--------------------------------------------------------------------------------
O    s O    s Buckingham    Buckingham A     22764.000    eV        0.000 12.000
                            Buckingham rho  0.14900000    Ang       
                            Buckingham C     27.879000    eV*Ang^6  
--------------------------------------------------------------------------------
O    c O    s Spring (c-s)  Spring k 2       74.920000    eV*Ang^-2 0.000  1.100
                            Spring k 4       0.0000000    eV*Ang^-4 
--------------------------------------------------------------------------------

  General Three-body potentials :

--------------------------------------------------------------------------------
  Atoms       Potential      Parameter       Value         Units   Cutoffs(Ang)
  1 / 2 / 3                                                          Min /  Max 
--------------------------------------------------------------------------------
Si    core    Harmonic      Three-body cnst  2.0972400    eV*rad^-2 0.000  1.900
O     shel                  Three-body angl  109.47000    degrees   0.000  1.900
O     shel                  Three-body k4    0.0000000    eV*rad^-4 0.000  3.500
                            Three-body k3    0.0000000    eV*rad^-3 
--------------------------------------------------------------------------------
Si    core    Harmonic      Three-body cnst  2.0972400    eV*rad^-2 0.000  1.900
O     shel                  Three-body angl  109.47000    degrees   0.000  1.900
õ(    shel                  Three-body k4    0.0000000    eV*rad^-4 0.000  3.500
                            Three-body k3    0.0000000    eV*rad^-3 
--------------------------------------------------------------------------------
Si    core    Harmonic      Three-body cnst  2.0972400    eV*rad^-2 0.000  1.900
õ(    shel                  Three-body angl  109.47000    degrees   0.000  1.900
õ(    shel                  Three-body k4    0.0000000    eV*rad^-4 0.000  3.500
                            Three-body k3    0.0000000    eV*rad^-3 
--------------------------------------------------------------------------------

********************************************************************************
*  Output for configuration   1 : ReferenceDataBase/ECNU-13a                   *
********************************************************************************


  Components of energy : 

--------------------------------------------------------------------------------
  Interatomic potentials     =        1775.59106059 eV    
  Three-body potentials      =           0.27076605 eV    
  Monopole - monopole (real) =       -6790.30667669 eV    
  Monopole - monopole (recip)=       -2111.57371664 eV    
  Monopole - monopole (total)=       -8901.88039333 eV    
--------------------------------------------------------------------------------
  Total lattice energy       =       -7126.01856670 eV    
--------------------------------------------------------------------------------
  Total lattice energy       =         -687551.8605 kJ/(mole unit cells)
--------------------------------------------------------------------------------


  Number of variables =      843

  Maximum number of calculations  =           500
  Maximum Hessian update interval =            10
  Maximum step size               =   0.100000000
  Maximum parameter tolerance     =   0.000010000
  Maximum function  tolerance     =   0.000010000
  Maximum gradient  tolerance     =   0.001000000
  Maximum gradient  component     =   0.010000000

  Cell parameters to be optimised using strains

  Newton-Raphson optimiser to be used

  BFGS hessian update to be used

  General 2-D hessian to be used

  Minimiser to switch to RFO
  When gradient norm is less than     0.080000

  Switch max step size to       0.30000000 when gnorm is less than     0.005000

  Dumpfile to be written after every cycle

  Start of bulk optimisation :

  Cycle:      0 Energy:     -7126.018567  Gnorm:      3.612429  CPU:    0.160
  ** Hessian calculated **
  Cycle:      1 Energy:     -7152.797901  Gnorm:      2.888244  CPU:    0.340
  ** Hessian calculated **
  Cycle:      2 Energy:     -7194.843392  Gnorm:      0.681264  CPU:    0.584
  ** Hessian calculated **
  Cycle:      3 Energy:     -7199.194369  Gnorm:      0.270638  CPU:    0.793
  Cycle:      4 Energy:     -7199.783363  Gnorm:      0.133141  CPU:    0.853
  Cycle:      5 Energy:     -7199.907172  Gnorm:      0.078637  CPU:    0.904
  ** Hessian has required structure
  Cycle:      6 Energy:     -7199.908282  Gnorm:      0.076221  CPU:    0.991
  ** Hessian has required structure
  Cycle:      7 Energy:     -7199.943865  Gnorm:      0.045024  CPU:    1.069
  ** Hessian has required structure
  Cycle:      8 Energy:     -7199.959350  Gnorm:      0.026807  CPU:    1.147
  ** Hessian has required structure
  Cycle:      9 Energy:     -7199.963787  Gnorm:      0.015545  CPU:    1.240
  ** Hessian has required structure
  Cycle:     10 Energy:     -7199.966329  Gnorm:      0.012541  CPU:    1.339
  ** Hessian has required structure
  Cycle:     11 Energy:     -7199.967425  Gnorm:      0.009210  CPU:    1.417
  ** Hessian has required structure
  Cycle:     12 Energy:     -7199.968347  Gnorm:      0.007292  CPU:    1.504
  ** Hessian has required structure
  Cycle:     13 Energy:     -7199.973458  Gnorm:      0.003669  CPU:    1.688
  ** Hessian has required structure
  Cycle:     14 Energy:     -7199.975058  Gnorm:      0.000938  CPU:    1.767
  ** Hessian has required structure
  Cycle:     15 Energy:     -7199.975178  Gnorm:      0.000386  CPU:    1.879
  ** Hessian has required structure
  Cycle:     16 Energy:     -7199.967448  Gnorm:      0.015258  CPU:    2.068
  ** Hessian has required structure
  Cycle:     17 Energy:     -7199.975050  Gnorm:      0.000188  CPU:    2.275
  ** Hessian has required structure


  **** Optimisation achieved ****


  Final energy =   -7199.97505195 eV      
  Final Gnorm  =       0.00001905

  Components of energy : 

--------------------------------------------------------------------------------
  Interatomic potentials     =        1950.80220227 eV    
  Three-body potentials      =           0.76616030 eV    
  Monopole - monopole (real) =       -6157.53921199 eV    
  Monopole - monopole (recip)=       -2994.00420254 eV    
  Monopole - monopole (total)=       -9151.54341453 eV    
--------------------------------------------------------------------------------
  Total lattice energy       =       -7199.97505195 eV    
--------------------------------------------------------------------------------
  Total lattice energy       =         -694687.5308 kJ/(mole unit cells)
--------------------------------------------------------------------------------

  Final fractional coordinates of atoms :

--------------------------------------------------------------------------------
   No.  Atomic        x           y          z          Radius
        Label       (Frac)      (Frac)     (Frac)       (Angs) 
--------------------------------------------------------------------------------
     1  O     c     0.062523    0.191291    0.309947    0.000000
     2  O     c     0.366170    0.331819    0.273490    0.000000
     3  O     c     0.256048    0.381275    0.335442    0.000000
     4  O     c     0.149489    0.322978    0.257195    0.000000
     5  O     c     0.335778    0.134762    0.313081    0.000000
     6  O     c     0.332051    0.207393    0.098375    0.000000
     7  O     c     0.439131    0.184646    0.209261    0.000000
     8  O     c     0.115160    0.183936    0.102106    0.000000
     9  O     c     0.175074    0.119971    0.285724    0.000000
    10  Si    c     0.326740    0.404024    0.360429    0.000000
    11  Si    c     0.184350    0.399369    0.347302    0.000000
    12  Si    c     0.368180    0.213039    0.220764    0.000000
    13  Si    c     0.124848    0.203379    0.239984    0.000000
    14  Si    c     0.002599    0.136716    0.361826    0.000000
    15  O     c     0.341913    0.377692    0.495662    0.000000
    16  O     c     0.163103    0.371944    0.478762    0.000000
    17  O     c     0.257197    0.979604    0.340026    0.000000
    18  Si    c     0.327841    0.013660    0.353747    0.000000
    19  Si    c     0.187484    0.013187    0.358159    0.000000
    20  O     c     0.342887    0.526888    0.333014    0.000000
    21  O     c     0.167545    0.520355    0.315829    0.000000
    22  O     c     0.139613    0.018674    0.970261    0.000000
    23  O     c     0.308487    0.017563    0.012176    0.000000
    24  O     c     0.224202    0.167852    0.007818    0.000000
    25  Si    c     0.152574    0.143103    0.990085    0.000000
    26  Si    c     0.295712    0.143508    0.998408    0.000000
    27  O     c     0.350130    0.003001    0.486054    0.000000
    28  O     c     0.171359    0.035164    0.492961    0.000000
    29  O     c     0.469691    0.130015    0.000060    0.000000
    30  O     c     0.499856    0.007661    0.176626    0.000000
    31  Si    c     0.491410    0.129109    0.133995    0.000000
    32  O     c     0.009857    0.010552    0.350355    0.000000
    33  O     c     0.994387    0.848896    0.494619    0.000000
    34  O     c     0.927802    0.866454    0.302382    0.000000
    35  O     c     0.633652    0.690951    0.271138    0.000000
    36  O     c     0.741336    0.646465    0.351705    0.000000
    37  O     c     0.854010    0.700496    0.299128    0.000000
    38  O     c     0.644329    0.889403    0.330487    0.000000
    39  O     c     0.670284    0.835292    0.117208    0.000000
    40  O     c     0.555445    0.823919    0.193986    0.000000
    41  O     c     0.864584    0.814530    0.112247    0.000000
    42  O     c     0.810990    0.897926    0.293199    0.000000
    43  Si    c     0.669951    0.619553    0.363785    0.000000
    44  Si    c     0.811930    0.624178    0.377495    0.000000
    45  Si    c     0.626059    0.811115    0.225373    0.000000
    46  Si    c     0.865119    0.819541    0.252735    0.000000
    47  Si    c     0.993177    0.886473    0.359720    0.000000
    48  O     c     0.647752    0.642481    0.495966    0.000000
    49  O     c     0.826561    0.648229    0.512867    0.000000
    50  O     c     0.729150    0.037109    0.351870    0.000000
    51  Si    c     0.658263    0.008681    0.371165    0.000000
    52  Si    c     0.799249    0.005900    0.364830    0.000000
    53  O     c     0.656633    0.496877    0.331460    0.000000
    54  O     c     0.828040    0.502723    0.346494    0.000000
    55  O     c     0.850052    0.001499    0.021368    0.000000
    56  O     c     0.681177    0.002610    0.979452    0.000000
    57  O     c     0.765462    0.852320    0.983810    0.000000
    58  Si    c     0.837090    0.877069    0.001544    0.000000
    59  Si    c     0.693952    0.876665    0.993221    0.000000
    60  O     c     0.639534    0.017171    0.505575    0.000000
    61  O     c     0.818306    0.985009    0.498667    0.000000
    62  O     c     0.519974    0.890157    0.991568    0.000000
    63  Si    c     0.502934    0.887351    0.127769    0.000000
    64  O     c     0.995277    0.171276    0.497010    0.000000
    65  O     c     0.947376    0.200068    0.705901    0.000000
    66  O     c     0.623871    0.295217    0.707421    0.000000
    67  O     c     0.736024    0.352524    0.661705    0.000000
    68  O     c     0.846645    0.306500    0.730769    0.000000
    69  O     c     0.621168    0.084069    0.714870    0.000000
    70  O     c     0.666801    0.193925    0.890802    0.000000
    71  O     c     0.549694    0.196002    0.844685    0.000000
    72  O     c     0.877442    0.166190    0.888542    0.000000
    73  O     c     0.843095    0.103544    0.677796    0.000000
    74  Si    c     0.665632    0.372491    0.630248    0.000000
    75  Si    c     0.807264    0.377735    0.643419    0.000000
    76  Si    c     0.616483    0.192213    0.788649    0.000000
    77  Si    c     0.878038    0.193233    0.751376    0.000000
    78  Si    c     0.996488    0.133699    0.631909    0.000000
    79  O     c     0.653858    0.346808    0.493975    0.000000
    80  O     c     0.825259    0.353366    0.509475    0.000000
    81  O     c     0.732467    0.040568    0.651602    0.000000
    82  Si    c     0.661824    0.006512    0.637882    0.000000
    83  Si    c     0.802180    0.006985    0.633470    0.000000
    84  O     c     0.646777    0.493285    0.658613    0.000000
    85  O     c     0.822120    0.499817    0.675799    0.000000
    86  O     c     0.769584    0.151376    0.987457    0.000000
    87  Si    c     0.840849    0.126452    0.002094    0.000000
    88  Si    c     0.698011    0.127448    0.994100    0.000000
    89  O     c     0.489809    0.012511    0.815003    0.000000
    90  Si    c     0.486730    0.132822    0.863860    0.000000
    91  O     c     0.979808    0.009620    0.641274    0.000000
    92  O     c     0.042483    0.841046    0.706844    0.000000
    93  O     c     0.357526    0.717782    0.718153    0.000000
    94  O     c     0.246672    0.667867    0.649836    0.000000
    95  O     c     0.132977    0.710353    0.698013    0.000000
    96  O     c     0.371216    0.926078    0.689432    0.000000
    97  O     c     0.316086    0.850965    0.874393    0.000000
    98  O     c     0.435263    0.825354    0.843151    0.000000
    99  O     c     0.120482    0.831890    0.879232    0.000000
   100  O     c     0.152178    0.916471    0.676316    0.000000
   101  Si    c     0.318013    0.645461    0.630945    0.000000
   102  Si    c     0.176800    0.640656    0.618155    0.000000
   103  Si    c     0.369292    0.829703    0.781685    0.000000
   104  Si    c     0.112564    0.826472    0.739729    0.000000
   105  Si    c     0.987065    0.883456    0.629803    0.000000
   106  O     c     0.335808    0.673364    0.497653    0.000000
   107  O     c     0.164405    0.666805    0.482154    0.000000
   108  O     c     0.260514    0.983063    0.639760    0.000000
   109  Si    c     0.331401    0.011491    0.620464    0.000000
   110  Si    c     0.190415    0.014273    0.626799    0.000000
   111  O     c     0.333031    0.523295    0.660169    0.000000
   112  O     c     0.161626    0.517450    0.645135    0.000000
   113  O     c     0.220080    0.868796    0.004171    0.000000
   114  Si    c     0.148815    0.893721    0.989534    0.000000
   115  Si    c     0.291653    0.892724    0.997528    0.000000
   116  Si    c     0.498254    0.891063    0.857634    0.000000
   117  O     c     0.927141    0.828882    0.681682    0.000000
   118  O     c     0.623494    0.688354    0.718139    0.000000
   119  O     c     0.733617    0.638896    0.656187    0.000000
   120  O     c     0.840175    0.697194    0.734434    0.000000
   121  O     c     0.653886    0.885410    0.678548    0.000000
   122  O     c     0.657613    0.812779    0.893254    0.000000
   123  O     c     0.550534    0.835526    0.782367    0.000000
   124  O     c     0.874504    0.836237    0.889522    0.000000
   125  O     c     0.814590    0.900201    0.705904    0.000000
   126  Si    c     0.662924    0.616148    0.631200    0.000000
   127  Si    c     0.805314    0.620803    0.644327    0.000000
   128  Si    c     0.621485    0.807133    0.770865    0.000000
   129  Si    c     0.864816    0.816793    0.751645    0.000000
   130  O     c     0.061862    0.153719    0.689246    0.000000
   131  O     c     0.356012    0.329221    0.720490    0.000000
   132  O     c     0.248328    0.373707    0.639923    0.000000
   133  O     c     0.135654    0.319676    0.692502    0.000000
   134  O     c     0.345334    0.130769    0.661142    0.000000
   135  O     c     0.319380    0.184881    0.874421    0.000000
   136  O     c     0.434219    0.196253    0.797642    0.000000
   137  O     c     0.125080    0.205642    0.879382    0.000000
   138  O     c     0.178675    0.122246    0.698430    0.000000
   139  Si    c     0.319714    0.400619    0.627844    0.000000
   140  Si    c     0.177735    0.395994    0.614133    0.000000
   141  Si    c     0.363605    0.209057    0.766256    0.000000
   142  Si    c     0.124545    0.200632    0.738894    0.000000
   143  O     c     0.042288    0.820104    0.285727    0.000000
   144  O     c     0.365794    0.724955    0.284207    0.000000
   145  O     c     0.253641    0.667650    0.329925    0.000000
   146  O     c     0.143019    0.713673    0.260860    0.000000
   147  O     c     0.368496    0.936103    0.276760    0.000000
   148  O     c     0.322863    0.826248    0.100827    0.000000
   149  O     c     0.439970    0.824170    0.146943    0.000000
   150  O     c     0.112223    0.853983    0.103086    0.000000
   151  O     c     0.146570    0.916628    0.313833    0.000000
   152  Si    c     0.324032    0.647681    0.361381    0.000000
   153  Si    c     0.182401    0.642438    0.348210    0.000000
   154  Si    c     0.373181    0.827959    0.202979    0.000000
   155  Si    c     0.111626    0.826939    0.240252    0.000000
   156  O     c     0.947182    0.179124    0.284785    0.000000
   157  O     c     0.632138    0.302390    0.273476    0.000000
   158  O     c     0.742993    0.352306    0.341792    0.000000
   159  O     c     0.856688    0.309819    0.293617    0.000000
   160  O     c     0.618449    0.094094    0.302197    0.000000
   161  O     c     0.673578    0.169206    0.117236    0.000000
   162  O     c     0.554401    0.194818    0.148478    0.000000
   163  O     c     0.869182    0.188283    0.112397    0.000000
   164  O     c     0.837485    0.103702    0.315312    0.000000
   165  Si    c     0.671652    0.374711    0.360683    0.000000
   166  Si    c     0.812865    0.379516    0.373474    0.000000
   167  Si    c     0.620373    0.190469    0.209944    0.000000
   168  Si    c     0.877100    0.193700    0.251900    0.000000
   169  O     s     0.062844    0.186258    0.307826    0.000000
   170  O     s     0.361955    0.326812    0.277412    0.000000
   171  O     s     0.255875    0.385965    0.339679    0.000000
   172  O     s     0.150725    0.318307    0.265647    0.000000
   173  O     s     0.338439    0.129745    0.307448    0.000000
   174  O     s     0.331987    0.200795    0.100710    0.000000
   175  O     s     0.437137    0.181465    0.201936    0.000000
   176  O     s     0.120374    0.181533    0.105028    0.000000
   177  O     s     0.171026    0.116949    0.288890    0.000000
   178  O     s     0.337892    0.383041    0.495337    0.000000
   179  O     s     0.167034    0.377552    0.479301    0.000000
   180  O     s     0.257124    0.987030    0.343574    0.000000
   181  O     s     0.339019    0.526718    0.339225    0.000000
   182  O     s     0.171091    0.520446    0.322968    0.000000
   183  O     s     0.142160    0.018481    0.974631    0.000000
   184  O     s     0.305330    0.017667    0.009174    0.000000
   185  O     s     0.224352    0.162353    0.004855    0.000000
   186  O     s     0.345348    0.005219    0.486270    0.000000
   187  O     s     0.175246    0.030452    0.492813    0.000000
   188  O     s     0.473988    0.130110    0.999788    0.000000
   189  O     s     0.499291    0.007788    0.166659    0.000000
   190  O     s     0.007170    0.010859    0.352776    0.000000
   191  O     s     0.993472    0.856788    0.494587    0.000000
   192  O     s     0.928114    0.863373    0.303368    0.000000
   193  O     s     0.636934    0.696291    0.276509    0.000000
   194  O     s     0.741311    0.640956    0.355960    0.000000
   195  O     s     0.850475    0.705255    0.302854    0.000000
   196  O     s     0.643921    0.894252    0.323305    0.000000
   197  O     s     0.667958    0.837367    0.115178    0.000000
   198  O     s     0.557479    0.829830    0.189879    0.000000
   199  O     s     0.861590    0.822048    0.115622    0.000000
   200  O     s     0.815468    0.901474    0.296728    0.000000
   201  O     s     0.651773    0.637131    0.496292    0.000000
   202  O     s     0.822630    0.642621    0.512328    0.000000
   203  O     s     0.729341    0.030421    0.355529    0.000000
   204  O     s     0.659800    0.496865    0.338366    0.000000
   205  O     s     0.824553    0.502579    0.352956    0.000000
   206  O     s     0.847504    0.001691    0.016999    0.000000
   207  O     s     0.684334    0.002505    0.982454    0.000000
   208  O     s     0.765313    0.857819    0.986774    0.000000
   209  O     s     0.644316    0.014953    0.505359    0.000000
   210  O     s     0.814419    0.989721    0.498816    0.000000
   211  O     s     0.515677    0.890062    0.991840    0.000000
   212  O     s     0.996192    0.163384    0.497042    0.000000
   213  O     s     0.945143    0.192001    0.702756    0.000000
   214  O     s     0.627903    0.292357    0.707761    0.000000
   215  O     s     0.736142    0.357555    0.656130    0.000000
   216  O     s     0.845665    0.301858    0.723057    0.000000
   217  O     s     0.625374    0.087159    0.714289    0.000000
   218  O     s     0.664686    0.186220    0.891034    0.000000
   219  O     s     0.550162    0.188367    0.840532    0.000000
   220  O     s     0.873374    0.164741    0.885848    0.000000
   221  O     s     0.842240    0.102339    0.680998    0.000000
   222  O     s     0.657109    0.352685    0.494324    0.000000
   223  O     s     0.821950    0.358828    0.509251    0.000000
   224  O     s     0.732540    0.033142    0.648054    0.000000
   225  O     s     0.650645    0.493455    0.652403    0.000000
   226  O     s     0.818574    0.499727    0.668660    0.000000
   227  O     s     0.769358    0.145756    0.989836    0.000000
   228  O     s     0.490373    0.012384    0.824970    0.000000
   229  O     s     0.982495    0.009313    0.638853    0.000000
   230  O     s     0.044243    0.844300    0.701700    0.000000
   231  O     s     0.354293    0.722235    0.715345    0.000000
   232  O     s     0.246849    0.662385    0.644214    0.000000
   233  O     s     0.135766    0.715433    0.693439    0.000000
   234  O     s     0.366422    0.925173    0.691837    0.000000
   235  O     s     0.319304    0.853399    0.878024    0.000000
   236  O     s     0.434854    0.833101    0.837986    0.000000
   237  O     s     0.122815    0.838316    0.876055    0.000000
   238  O     s     0.152137    0.917703    0.677790    0.000000
   239  O     s     0.332556    0.667487    0.497305    0.000000
   240  O     s     0.167714    0.661344    0.482378    0.000000
   241  O     s     0.260323    0.989751    0.636100    0.000000
   242  O     s     0.329865    0.523307    0.653264    0.000000
   243  O     s     0.165112    0.517594    0.638673    0.000000
   244  O     s     0.220306    0.874417    0.001792    0.000000
   245  O     s     0.926820    0.833914    0.683803    0.000000
   246  O     s     0.627709    0.693360    0.714216    0.000000
   247  O     s     0.733790    0.634206    0.651951    0.000000
   248  O     s     0.838939    0.701865    0.725982    0.000000
   249  O     s     0.651226    0.890428    0.684181    0.000000
   250  O     s     0.657677    0.819377    0.890918    0.000000
   251  O     s     0.552528    0.838707    0.789693    0.000000
   252  O     s     0.869290    0.838640    0.886601    0.000000
   253  O     s     0.818639    0.903223    0.702739    0.000000
   254  O     s     0.061551    0.156800    0.688260    0.000000
   255  O     s     0.352730    0.323881    0.715120    0.000000
   256  O     s     0.248354    0.379215    0.635668    0.000000
   257  O     s     0.139189    0.314917    0.688775    0.000000
   258  O     s     0.345743    0.125920    0.668325    0.000000
   259  O     s     0.321706    0.182806    0.876451    0.000000
   260  O     s     0.432185    0.190342    0.801749    0.000000
   261  O     s     0.128074    0.198125    0.876007    0.000000
   262  O     s     0.174197    0.118699    0.694901    0.000000
   263  O     s     0.044521    0.828171    0.288873    0.000000
   264  O     s     0.361761    0.727815    0.283868    0.000000
   265  O     s     0.253523    0.662618    0.335500    0.000000
   266  O     s     0.143999    0.718314    0.268572    0.000000
   267  O     s     0.364291    0.933013    0.277341    0.000000
   268  O     s     0.324978    0.833953    0.100595    0.000000
   269  O     s     0.439502    0.831805    0.151096    0.000000
   270  O     s     0.116290    0.855432    0.105781    0.000000
   271  O     s     0.147424    0.917833    0.310631    0.000000
   272  O     s     0.945421    0.175871    0.289929    0.000000
   273  O     s     0.635371    0.297937    0.276284    0.000000
   274  O     s     0.742816    0.357788    0.347413    0.000000
   275  O     s     0.853899    0.304739    0.298191    0.000000
   276  O     s     0.623242    0.094999    0.299792    0.000000
   277  O     s     0.670361    0.166773    0.113605    0.000000
   278  O     s     0.554811    0.187071    0.153643    0.000000
   279  O     s     0.866849    0.181857    0.115573    0.000000
   280  O     s     0.837527    0.102470    0.313838    0.000000
--------------------------------------------------------------------------------

  Final Cartesian lattice vectors (Angstroms) :

       21.891515   -0.000025   -0.000025
       -0.113549   12.534338   -0.000001
       -0.023267    0.004369   11.413289


  Final cell parameters and derivatives :

--------------------------------------------------------------------------------
       a           21.891515 Angstrom     dE/de1(xx)    -0.000916 eV/strain
       b           12.534852 Angstrom     dE/de2(yy)    -0.007988 eV/strain
       c           11.413313 Angstrom     dE/de3(zz)    -0.008084 eV/strain
       alpha       89.977016 Degrees      dE/de4(yz)    -0.000087 eV/strain
       beta        90.116865 Degrees      dE/de5(xz)    -0.000055 eV/strain
       gamma       90.519095 Degrees      dE/de6(xy)     0.000437 eV/strain
--------------------------------------------------------------------------------

  Primitive cell volume =          3131.756622 Angs**3

  Density of cell =      1.784260 g/cm**3

  Non-primitive cell volume =          3131.756622 Angs**3


  Final internal derivatives :

--------------------------------------------------------------------------------
   No.  Atomic          a             b             c           Radius
        Label          (eV)          (eV)          (eV)        (eV/Angs)
--------------------------------------------------------------------------------
      1 O     c      -0.000231     -0.000001      0.000067      0.000000
      2 O     c      -0.000472     -0.000309      0.000081      0.000000
      3 O     c       0.000267      0.000012     -0.000126      0.000000
      4 O     c       0.000082     -0.000159      0.000207      0.000000
      5 O     c       0.000234     -0.000340     -0.000045      0.000000
      6 O     c       0.000007     -0.000103      0.000017      0.000000
      7 O     c       0.000594     -0.000093     -0.000105      0.000000
      8 O     c       0.000617     -0.000027      0.000229      0.000000
      9 O     c      -0.000189     -0.000445      0.000133      0.000000
     10 Si    c       0.001179      0.000043      0.000376      0.000000
     11 Si    c      -0.001451      0.000144      0.000413      0.000000
     12 Si    c      -0.001322      0.000297      0.000255      0.000000
     13 Si    c       0.001136      0.000070     -0.000490      0.000000
     14 Si    c      -0.000161     -0.000580      0.000674      0.000000
     15 O     c      -0.000360      0.000431     -0.000021      0.000000
     16 O     c       0.000207      0.000508      0.000059      0.000000
     17 O     c      -0.000085     -0.000173     -0.000006      0.000000
     18 Si    c       0.001483      0.000214      0.000065      0.000000
     19 Si    c      -0.001194      0.000394      0.000108      0.000000
     20 O     c      -0.000986      0.000059     -0.000065      0.000000
     21 O     c       0.001032     -0.000183     -0.000179      0.000000
     22 O     c       0.000591     -0.000176      0.000116      0.000000
     23 O     c      -0.000618      0.000214      0.000093      0.000000
     24 O     c       0.000037      0.000051      0.000039      0.000000
     25 Si    c      -0.001471     -0.000129     -0.000079      0.000000
     26 Si    c       0.001281     -0.000282     -0.000057      0.000000
     27 O     c      -0.001002      0.000036      0.000073      0.000000
     28 O     c       0.000960      0.000213     -0.000086      0.000000
     29 O     c       0.000774     -0.000055     -0.000023      0.000000
     30 O     c      -0.000131     -0.000004     -0.000308      0.000000
     31 Si    c      -0.000501     -0.000688     -0.000541      0.000000
     32 O     c      -0.000415      0.000152      0.000061      0.000000
     33 O     c      -0.000054      0.000357      0.000016      0.000000
     34 O     c       0.000026      0.000040      0.000006      0.000000
     35 O     c       0.000459      0.000320      0.000046      0.000000
     36 O     c       0.000098      0.000009     -0.000125      0.000000
     37 O     c      -0.000150      0.000359      0.000004      0.000000
     38 O     c      -0.000112      0.000228     -0.000198      0.000000
     39 O     c      -0.000011      0.000181     -0.000127      0.000000
     40 O     c      -0.000632      0.000121     -0.000135      0.000000
     41 O     c      -0.000424      0.000245      0.000194      0.000000
     42 O     c       0.000171      0.000484      0.000175      0.000000
     43 Si    c      -0.001286     -0.000129      0.000355      0.000000
     44 Si    c       0.001001     -0.000238      0.000543      0.000000
     45 Si    c       0.001265     -0.000160      0.000490      0.000000
     46 Si    c      -0.001119     -0.000190     -0.000422      0.000000
     47 Si    c       0.000535      0.000407      0.000628      0.000000
     48 O     c       0.000380     -0.000424      0.000019      0.000000
     49 O     c      -0.000226     -0.000502     -0.000064      0.000000
     50 O     c       0.000064      0.000160     -0.000007      0.000000
     51 Si    c      -0.001387     -0.000205      0.000135      0.000000
     52 Si    c       0.001239     -0.000436      0.000074      0.000000
     53 O     c       0.000933     -0.000124     -0.000001      0.000000
     54 O     c      -0.000876      0.000133     -0.000128      0.000000
     55 O     c      -0.000602      0.000175     -0.000098      0.000000
     56 O     c       0.000615     -0.000205     -0.000094      0.000000
     57 O     c      -0.000055     -0.000050     -0.000037      0.000000
     58 Si    c       0.001456      0.000137      0.000073      0.000000
     59 Si    c      -0.001257      0.000287      0.000061      0.000000
     60 O     c       0.000997     -0.000041     -0.000068      0.000000
     61 O     c      -0.000962     -0.000169      0.000074      0.000000
     62 O     c      -0.000763      0.000054      0.000025      0.000000
     63 Si    c       0.000624      0.000717     -0.000525      0.000000
     64 O     c      -0.000009     -0.000358     -0.000019      0.000000
     65 O     c       0.000590     -0.000114     -0.000134      0.000000
     66 O     c       0.000260     -0.000315      0.000206      0.000000
     67 O     c      -0.000197     -0.000004      0.000179      0.000000
     68 O     c      -0.000086     -0.000209     -0.000135      0.000000
     69 O     c       0.000442      0.000271      0.000073      0.000000
     70 O     c       0.000114     -0.000209      0.000282      0.000000
     71 O     c       0.000120      0.000073      0.000034      0.000000
     72 O     c      -0.000441     -0.000063     -0.000342      0.000000
     73 O     c       0.000080      0.000004     -0.000138      0.000000
     74 Si    c      -0.001053      0.000226     -0.000537      0.000000
     75 Si    c       0.001382      0.000032     -0.000502      0.000000
     76 Si    c       0.001207     -0.000086     -0.000545      0.000000
     77 Si    c      -0.001210      0.000168      0.000498      0.000000
     78 Si    c      -0.000530     -0.000397     -0.000633      0.000000
     79 O     c       0.000081      0.000427      0.000033      0.000000
     80 O     c      -0.000030      0.000511     -0.000030      0.000000
     81 O     c       0.000093      0.000161      0.000005      0.000000
     82 Si    c      -0.001465     -0.000205     -0.000073      0.000000
     83 Si    c       0.001190     -0.000392     -0.000128      0.000000
     84 O     c       0.000986     -0.000075      0.000051      0.000000
     85 O     c      -0.001030      0.000172      0.000170      0.000000
     86 O     c       0.000089      0.000053     -0.000021      0.000000
     87 Si    c       0.001300     -0.000293      0.000106      0.000000
     88 Si    c      -0.001567     -0.000093      0.000033      0.000000
     89 O     c       0.000144      0.000004      0.000307      0.000000
     90 Si    c      -0.000644     -0.000712      0.000522      0.000000
     91 O     c       0.000463     -0.000169     -0.000047      0.000000
     92 O     c      -0.000334      0.000031     -0.000026      0.000000
     93 O     c      -0.000250      0.000318      0.000272      0.000000
     94 O     c      -0.000203      0.000020      0.000170      0.000000
     95 O     c       0.000193      0.000354      0.000039      0.000000
     96 O     c      -0.000496     -0.000244      0.000002      0.000000
     97 O     c      -0.000305      0.000327      0.000377      0.000000
     98 O     c      -0.000058     -0.000052      0.000028      0.000000
     99 O     c       0.000416      0.000270     -0.000300      0.000000
    100 O     c       0.000084      0.000233     -0.000345      0.000000
    101 Si    c       0.001178     -0.000296     -0.000499      0.000000
    102 Si    c      -0.001095     -0.000057     -0.000510      0.000000
    103 Si    c      -0.000958      0.000043     -0.000571      0.000000
    104 Si    c       0.000984     -0.000492      0.000584      0.000000
    105 Si    c       0.000143      0.000589     -0.000668      0.000000
    106 O     c      -0.000005     -0.000432     -0.000026      0.000000
    107 O     c      -0.000037     -0.000516      0.000034      0.000000
    108 O     c      -0.000036     -0.000172      0.000009      0.000000
    109 Si    c       0.001398      0.000207     -0.000134      0.000000
    110 Si    c      -0.001232      0.000450     -0.000056      0.000000
    111 O     c      -0.000927      0.000116      0.000007      0.000000
    112 O     c       0.000887     -0.000127      0.000136      0.000000
    113 O     c      -0.000083     -0.000051      0.000028      0.000000
    114 Si    c      -0.001338      0.000281     -0.000123      0.000000
    115 Si    c       0.001590      0.000084     -0.000035      0.000000
    116 Si    c       0.000494      0.000687      0.000543      0.000000
    117 O     c       0.000248      0.000005     -0.000068      0.000000
    118 O     c       0.000484      0.000311     -0.000083      0.000000
    119 O     c      -0.000250     -0.000011      0.000124      0.000000
    120 O     c      -0.000097      0.000167     -0.000199      0.000000
    121 O     c      -0.000216      0.000338      0.000051      0.000000
    122 O     c       0.000002      0.000096     -0.000019      0.000000
    123 O     c      -0.000588      0.000090      0.000101      0.000000
    124 O     c      -0.000623      0.000038     -0.000233      0.000000
    125 O     c       0.000193      0.000437     -0.000135      0.000000
    126 Si    c      -0.001166     -0.000042     -0.000371      0.000000
    127 Si    c       0.001418     -0.000149     -0.000416      0.000000
    128 Si    c       0.001336     -0.000299     -0.000256      0.000000
    129 Si    c      -0.001152     -0.000068      0.000495      0.000000
    130 O     c      -0.000052     -0.000048     -0.000008      0.000000
    131 O     c      -0.000428     -0.000322     -0.000052      0.000000
    132 O     c      -0.000093     -0.000006      0.000127      0.000000
    133 O     c       0.000152     -0.000365      0.000002      0.000000
    134 O     c       0.000117     -0.000232      0.000201      0.000000
    135 O     c       0.000019     -0.000177      0.000127      0.000000
    136 O     c       0.000650     -0.000127      0.000138      0.000000
    137 O     c       0.000392     -0.000255     -0.000193      0.000000
    138 O     c      -0.000160     -0.000500     -0.000169      0.000000
    139 Si    c       0.001302      0.000136     -0.000359      0.000000
    140 Si    c      -0.001008      0.000233     -0.000548      0.000000
    141 Si    c      -0.001259      0.000154     -0.000490      0.000000
    142 Si    c       0.001112      0.000202      0.000414      0.000000
    143 O     c      -0.000594      0.000113      0.000137      0.000000
    144 O     c      -0.000242      0.000318     -0.000218      0.000000
    145 O     c       0.000181      0.000007     -0.000195      0.000000
    146 O     c       0.000092      0.000222      0.000128      0.000000
    147 O     c      -0.000425     -0.000274     -0.000066      0.000000
    148 O     c      -0.000103      0.000213     -0.000277      0.000000
    149 O     c      -0.000114     -0.000069     -0.000033      0.000000
    150 O     c       0.000440      0.000058      0.000350      0.000000
    151 O     c      -0.000093      0.000004      0.000159      0.000000
    152 Si    c       0.001077     -0.000217      0.000548      0.000000
    153 Si    c      -0.001399     -0.000023      0.000507      0.000000
    154 Si    c      -0.001204      0.000087      0.000540      0.000000
    155 Si    c       0.001199     -0.000185     -0.000512      0.000000
    156 O     c       0.000360     -0.000035      0.000033      0.000000
    157 O     c       0.000278     -0.000319     -0.000256      0.000000
    158 O     c       0.000161     -0.000018     -0.000155      0.000000
    159 O     c      -0.000159     -0.000345     -0.000000      0.000000
    160 O     c       0.000509      0.000244     -0.000018      0.000000
    161 O     c       0.000312     -0.000323     -0.000369      0.000000
    162 O     c       0.000063      0.000052     -0.000029      0.000000
    163 O     c      -0.000461     -0.000230      0.000315      0.000000
    164 O     c      -0.000085     -0.000203      0.000296      0.000000
    165 Si    c      -0.001152      0.000289      0.000485      0.000000
    166 Si    c       0.001109      0.000058      0.000501      0.000000
    167 Si    c       0.000977     -0.000036      0.000579      0.000000
    168 Si    c       0.000000      0.000000      0.000000      0.000000
    169 O     s       0.000033     -0.000103      0.000001      0.000000
    170 O     s       0.000116     -0.000069      0.000097      0.000000
    171 O     s      -0.000028     -0.000251      0.000135      0.000000
    172 O     s      -0.000015     -0.000121      0.000128      0.000000
    173 O     s       0.000106     -0.000053     -0.000116      0.000000
    174 O     s       0.000057     -0.000077      0.000018      0.000000
    175 O     s      -0.000181     -0.000061     -0.000129      0.000000
    176 O     s      -0.000126     -0.000064     -0.000035      0.000000
    177 O     s      -0.000055      0.000042     -0.000038      0.000000
    178 O     s       0.000194      0.000051     -0.000002      0.000000
    179 O     s      -0.000242      0.000078      0.000001      0.000000
    180 O     s       0.000065      0.000197     -0.000103      0.000000
    181 O     s       0.000411      0.000013      0.000076      0.000000
    182 O     s      -0.000466      0.000056      0.000023      0.000000
    183 O     s      -0.000158      0.000054      0.000020      0.000000
    184 O     s       0.000137     -0.000074     -0.000021      0.000000
    185 O     s       0.000072     -0.000052     -0.000056      0.000000
    186 O     s       0.000352      0.000152     -0.000040      0.000000
    187 O     s      -0.000354      0.000026      0.000006      0.000000
    188 O     s      -0.000192     -0.000080     -0.000001      0.000000
    189 O     s       0.000017     -0.000008     -0.000118      0.000000
    190 O     s       0.000085     -0.000040      0.000042      0.000000
    191 O     s       0.000064      0.000153     -0.000011      0.000000
    192 O     s       0.000098     -0.000068      0.000035      0.000000
    193 O     s      -0.000154      0.000077      0.000115      0.000000
    194 O     s      -0.000009      0.000149      0.000166      0.000000
    195 O     s      -0.000008      0.000082      0.000117      0.000000
    196 O     s      -0.000082      0.000049     -0.000090      0.000000
    197 O     s      -0.000112      0.000084      0.000009      0.000000
    198 O     s       0.000202      0.000115     -0.000066      0.000000
    199 O     s       0.000092      0.000113      0.000012      0.000000
    200 O     s       0.000070     -0.000063     -0.000043      0.000000
    201 O     s      -0.000220     -0.000055      0.000003      0.000000
    202 O     s       0.000256     -0.000084     -0.000003      0.000000
    203 O     s      -0.000089     -0.000178     -0.000105      0.000000
    204 O     s      -0.000390      0.000034      0.000053      0.000000
    205 O     s       0.000361     -0.000026      0.000048      0.000000
    206 O     s       0.000190     -0.000052     -0.000017      0.000000
    207 O     s      -0.000151      0.000073      0.000019      0.000000
    208 O     s      -0.000063      0.000054      0.000055      0.000000
    209 O     s      -0.000352     -0.000147      0.000038      0.000000
    210 O     s       0.000355     -0.000018     -0.000003      0.000000
    211 O     s       0.000181      0.000079      0.000002      0.000000
    212 O     s      -0.000041     -0.000149      0.000010      0.000000
    213 O     s      -0.000153     -0.000152     -0.000028      0.000000
    214 O     s      -0.000095     -0.000032     -0.000083      0.000000
    215 O     s      -0.000007     -0.000210     -0.000237      0.000000
    216 O     s       0.000096     -0.000091     -0.000081      0.000000
    217 O     s      -0.000144     -0.000013     -0.000031      0.000000
    218 O     s      -0.000161     -0.000102     -0.000025      0.000000
    219 O     s      -0.000092     -0.000169     -0.000126      0.000000
    220 O     s       0.000056     -0.000054      0.000047      0.000000
    221 O     s       0.000134      0.000053     -0.000004      0.000000
    222 O     s      -0.000195      0.000088      0.000006      0.000000
    223 O     s       0.000152      0.000063     -0.000030      0.000000
    224 O     s      -0.000055     -0.000194      0.000088      0.000000
    225 O     s      -0.000418     -0.000013     -0.000085      0.000000
    226 O     s       0.000470     -0.000054     -0.000028      0.000000
    227 O     s      -0.000036     -0.000076      0.000023      0.000000
    228 O     s      -0.000020      0.000008      0.000119      0.000000
    229 O     s      -0.000087      0.000043     -0.000045      0.000000
    230 O     s      -0.000055     -0.000011     -0.000065      0.000000
    231 O     s       0.000090     -0.000010     -0.000085      0.000000
    232 O     s       0.000082      0.000118     -0.000253      0.000000
    233 O     s      -0.000074     -0.000010     -0.000080      0.000000
    234 O     s       0.000227      0.000040     -0.000038      0.000000
    235 O     s       0.000171      0.000088     -0.000024      0.000000
    236 O     s       0.000077      0.000229     -0.000120      0.000000
    237 O     s      -0.000034      0.000111      0.000064      0.000000
    238 O     s      -0.000230     -0.000138     -0.000008      0.000000
    239 O     s       0.000172     -0.000078     -0.000006      0.000000
    240 O     s      -0.000145     -0.000054      0.000029      0.000000
    241 O     s       0.000095      0.000177      0.000125      0.000000
    242 O     s       0.000375     -0.000037     -0.000047      0.000000
    243 O     s      -0.000376      0.000023     -0.000042      0.000000
    244 O     s       0.000030      0.000070     -0.000038      0.000000
    245 O     s      -0.000052      0.000104      0.000001      0.000000
    246 O     s      -0.000136      0.000067     -0.000099      0.000000
    247 O     s       0.000021      0.000237     -0.000136      0.000000
    248 O     s       0.000033      0.000118     -0.000127      0.000000
    249 O     s      -0.000120      0.000059      0.000114      0.000000
    250 O     s      -0.000073      0.000076     -0.000015      0.000000
    251 O     s       0.000177      0.000060      0.000129      0.000000
    252 O     s       0.000135      0.000066      0.000032      0.000000
    253 O     s       0.000062     -0.000038      0.000027      0.000000
    254 O     s      -0.000083      0.000084     -0.000042      0.000000
    255 O     s       0.000124     -0.000082     -0.000115      0.000000
    256 O     s       0.000024     -0.000161     -0.000165      0.000000
    257 O     s       0.000020     -0.000083     -0.000118      0.000000
    258 O     s       0.000065     -0.000047      0.000093      0.000000
    259 O     s       0.000099     -0.000081     -0.000010      0.000000
    260 O     s      -0.000222     -0.000118      0.000067      0.000000
    261 O     s      -0.000071     -0.000114     -0.000011      0.000000
    262 O     s      -0.000054      0.000072      0.000057      0.000000
    263 O     s       0.000147      0.000144      0.000030      0.000000
    264 O     s       0.000081      0.000032      0.000080      0.000000
    265 O     s       0.000010      0.000221      0.000254      0.000000
    266 O     s      -0.000094      0.000087      0.000079      0.000000
    267 O     s       0.000127      0.000013      0.000028      0.000000
    268 O     s       0.000141      0.000104      0.000025      0.000000
    269 O     s       0.000095      0.000174      0.000121      0.000000
    270 O     s      -0.000040      0.000049     -0.000053      0.000000
    271 O     s      -0.000148     -0.000059     -0.000000      0.000000
    272 O     s       0.000032     -0.000018      0.000044      0.000000
    273 O     s      -0.000110      0.000006      0.000089      0.000000
    274 O     s      -0.000049     -0.000114      0.000236      0.000000
    275 O     s       0.000065     -0.000017      0.000082      0.000000
    276 O     s      -0.000236     -0.000040      0.000039      0.000000
    277 O     s      -0.000200     -0.000087      0.000020      0.000000
    278 O     s      -0.000082     -0.000224      0.000125      0.000000
    279 O     s       0.000078     -0.000116     -0.000055      0.000000
    280 O     s       0.000210      0.000113      0.000021      0.000000
--------------------------------------------------------------------------------
  Maximum abs         0.001590      0.000717      0.000674      0.000000
--------------------------------------------------------------------------------


  Time to end of optimisation =       2.3799 seconds


  Peak dynamic memory used =       5.15 MB 


  Timing analysis for GULP :

--------------------------------------------------------------------------------
  Task / Subroutine                                          Time (Seconds)
--------------------------------------------------------------------------------
  Calculation of reciprocal space energy and derivatives          0.2004
  Calculation of real space energy and derivatives                1.1458
  Calculation of three-body energy and derivatives                0.0589
  Calculation and manipulation of Hessian matrix                  0.5216
  Calculation of matrix inversion                                 0.1127
  Symmetry generation of equivalent positions                     0.0002
  Global summation overhead                                       0.3569
--------------------------------------------------------------------------------
  Total CPU time                                                  2.3800
--------------------------------------------------------------------------------


  Dump file written as ReferenceDataBase/ECNU-13a.grs
  CIF file written as ReferenceDataBase/ECNU-13a_opt.cif


  Job Finished at 14:13.43 20th April      2023                               

