********************************************************************************
*                       GENERAL UTILITY LATTICE PROGRAM                        *
*                                 Julian Gale                                  *
*                       Curtin Institute for Computation                       *
*                    School of Molecular and Life Sciences                     *
*                    Curtin University, Western Australia                      *
********************************************************************************
* Version = 6.1.2 * Last modified =   3rd November 2022                        *
********************************************************************************
*  optimise     - perform optimisation run                                     *
*  conp         - constant pressure calculation                                *
*  nosymmetry   - turn off symmetry after initial structure generation         *
********************************************************************************

  Job Started  at 00:50.11  6th February   2024                               

  Number of CPUs =     1


  Total number of configurations input =      1

********************************************************************************
*  Input for Configuration =   1 : ReferenceDataBase/ECNU-23a                  *
********************************************************************************

  Formula = O224Si112                                                   

  Number of irreducible atoms/shells =     560


  Total number atoms/shells =     560

  Dimensionality = 3               :  Bulk   



  Cartesian lattice vectors (Angstroms) :

       21.690500    0.000000    0.000000
        0.106086   13.537084    0.000000
       -0.008738    0.118882   19.944944

  Cell parameters (Angstroms/Degrees):

  a =      21.6905    alpha =  89.6587
  b =      13.5375    beta  =  90.0251
  c =      19.9453    gamma =  89.5510

  Initial cell volume =        5856.356610 Angs**3

  Temperature of configuration =   0.00     K 

  Pressure of configuration =         0.000 GPa 

  Fractional coordinates of asymmetric unit :

--------------------------------------------------------------------------------
   No.  Atomic       x           y          z         Charge      Occupancy
        Label      (Frac)      (Frac)     (Frac)        (e)         (Frac)  
--------------------------------------------------------------------------------
      1 O     c    0.759006    0.983990    0.069469     0.86902    1.000000    
      2 O     c    0.239497 *  0.982139 *  0.076530 *   0.86902    1.000000    
      3 O     c    0.273359 *  0.005701 *  0.451563 *   0.86902    1.000000    
      4 O     c    0.721158 *  0.002683 *  0.445296 *   0.86902    1.000000    
      5 O     c    0.258288 *  0.480504 *  0.076090 *   0.86902    1.000000    
      6 O     c    0.736618 *  0.520678 *  0.067755 *   0.86902    1.000000    
      7 O     c    0.771364 *  0.489674 *  0.443566 *   0.86902    1.000000    
      8 O     c    0.223710 *  0.506007 *  0.451299 *   0.86902    1.000000    
      9 O     c    0.676779 *  0.608222 *  0.249442 *   0.86902    1.000000    
     10 O     c    0.327804 *  0.399509 *  0.236836 *   0.86902    1.000000    
     11 O     c    0.312300 *  0.591572 *  0.234169 *   0.86902    1.000000    
     12 O     c    0.677240 *  0.420182 *  0.213531 *   0.86902    1.000000    
     13 O     c    0.179748 *  0.108438 *  0.226441 *   0.86902    1.000000    
     14 O     c    0.831067 *  0.907539 *  0.231240 *   0.86902    1.000000    
     15 O     c    0.816272 *  0.099877 *  0.239594 *   0.86902    1.000000    
     16 O     c    0.173459 *  0.917990 *  0.247502 *   0.86902    1.000000    
     17 O     c    0.648712 *  0.922657 *  0.107192 *   0.86902    1.000000    
     18 O     c    0.323029 *  0.108323 *  0.110789 *   0.86902    1.000000    
     19 O     c    0.317006 *  0.893379 *  0.356745 *   0.86902    1.000000    
     20 O     c    0.680390 *  0.120709 *  0.348636 *   0.86902    1.000000    
     21 O     c    0.144331 *  0.432318 *  0.108083 *   0.86902    1.000000    
     22 O     c    0.849294 *  0.579172 *  0.097790 *   0.86902    1.000000    
     23 O     c    0.850927 *  0.417348 *  0.362123 *   0.86902    1.000000    
     24 O     c    0.173890 *  0.603466 *  0.351246 *   0.86902    1.000000    
     25 O     c    0.558503 *  0.803125 *  0.125809 *   0.86902    1.000000    
     26 O     c    0.442848 *  0.136276 *  0.104357 *   0.86902    1.000000    
     27 O     c    0.433937 *  0.839944 *  0.352494 *   0.86902    1.000000    
     28 O     c    0.560597 *  0.151447 *  0.339049 *   0.86902    1.000000    
     29 O     c    0.046101 *  0.334686 *  0.097482 *   0.86902    1.000000    
     30 O     c    0.946212 *  0.682792 *  0.122450 *   0.86902    1.000000    
     31 O     c    0.944474 *  0.308054 *  0.333507 *   0.86902    1.000000    
     32 O     c    0.055749 *  0.643578 *  0.353503 *   0.86902    1.000000    
     33 O     c    0.640899 *  0.768746 *  0.029663 *   0.86902    1.000000    
     34 O     c    0.366857 *  0.232819 *  0.024777 *   0.86902    1.000000    
     35 O     c    0.347726 *  0.723938 *  0.405571 *   0.86902    1.000000    
     36 O     c    0.636232 *  0.280877 *  0.398829 *   0.86902    1.000000    
     37 O     c    0.143518 *  0.282654 *  0.025598 *   0.86902    1.000000    
     38 O     c    0.867974 *  0.738895 *  0.027342 *   0.86902    1.000000    
     39 O     c    0.847793 *  0.229257 *  0.395801 *   0.86902    1.000000    
     40 O     c    0.138006 *  0.765374 *  0.408173 *   0.86902    1.000000    
     41 O     c    0.369222 *  0.270688 *  0.154075 *   0.86902    1.000000    
     42 O     c    0.671685 *  0.741267 *  0.152759 *   0.86902    1.000000    
     43 O     c    0.633635 *  0.261309 *  0.271372 *   0.86902    1.000000    
     44 O     c    0.356529 *  0.755591 *  0.276390 *   0.86902    1.000000    
     45 O     c    0.835820 *  0.758087 *  0.149271 *   0.86902    1.000000    
     46 O     c    0.139068 *  0.248604 *  0.154983 *   0.86902    1.000000    
     47 O     c    0.128084 *  0.747130 *  0.279541 *   0.86902    1.000000    
     48 O     c    0.840980 *  0.284324 *  0.269882 *   0.86902    1.000000    
     49 O     c    0.493245 *  0.849170 *  0.234467 *   0.86902    1.000000    
     50 O     c    0.505531 *  0.125219 *  0.219975 *   0.86902    1.000000    
     51 O     c    0.998168 *  0.353277 *  0.218935 *   0.86902    1.000000    
     52 O     c    0.999781 *  0.627096 *  0.235268 *   0.86902    1.000000    
     53 O     c    0.275987 *  0.992853 *  0.202013 *   0.86902    1.000000    
     54 O     c    0.725295 *  0.986143 *  0.196104 *   0.86902    1.000000    
     55 O     c    0.758591 *  0.981197 *  0.322077 *   0.86902    1.000000    
     56 O     c    0.240268 *  0.031611 *  0.325714 *   0.86902    1.000000    
     57 O     c    0.773673 *  0.533312 *  0.193327 *   0.86902    1.000000    
     58 O     c    0.220744 *  0.476947 *  0.201467 *   0.86902    1.000000    
     59 O     c    0.258892 *  0.477917 *  0.326889 *   0.86902    1.000000    
     60 O     c    0.741488 *  0.472402 *  0.315973 *   0.86902    1.000000    
     61 O     c    0.321270 *  0.597285 *  0.496715 *   0.86902    1.000000    
     62 O     c    0.670322 *  0.407678 *  0.488261 *   0.86902    1.000000    
     63 O     c    0.674792 *  0.602213 *  0.472399 *   0.86902    1.000000    
     64 O     c    0.325103 *  0.403980 *  0.481485 *   0.86902    1.000000    
     65 O     c    0.818231 *  0.100814 *  0.485139 *   0.86902    1.000000    
     66 O     c    0.172391 *  0.906964 *  0.483066 *   0.86902    1.000000    
     67 O     c    0.176251 *  0.101173 *  0.496376 *   0.86902    1.000000    
     68 O     c    0.825377 *  0.907391 *  0.476578 *   0.86902    1.000000    
     69 O     c    0.350368 *  0.920817 *  0.115448 *   0.86902    1.000000    
     70 O     c    0.677872 *  0.109698 *  0.112201 *   0.86902    1.000000    
     71 O     c    0.644235 *  0.938361 *  0.356462 *   0.86902    1.000000    
     72 O     c    0.351774 *  0.077760 *  0.368780 *   0.86902    1.000000    
     73 O     c    0.815792 *  0.395756 *  0.115986 *   0.86902    1.000000    
     74 O     c    0.181194 *  0.614359 *  0.120776 *   0.86902    1.000000    
     75 O     c    0.149655 *  0.416479 *  0.371804 *   0.86902    1.000000    
     76 O     c    0.819953 *  0.603366 *  0.351075 *   0.86902    1.000000    
     77 O     c    0.442589 *  0.804810 *  0.119424 *   0.86902    1.000000    
     78 O     c    0.558829 *  0.139426 *  0.102109 *   0.86902    1.000000    
     79 O     c    0.549079 *  0.830964 *  0.351685 *   0.86902    1.000000    
     80 O     c    0.445186 *  0.179210 *  0.328455 *   0.86902    1.000000    
     81 O     c    0.931938 *  0.342670 *  0.107498 *   0.86902    1.000000    
     82 O     c    0.062711 *  0.657303 *  0.123967 *   0.86902    1.000000    
     83 O     c    0.060828 *  0.305406 *  0.327627 *   0.86902    1.000000    
     84 O     c    0.939689 *  0.633388 *  0.352619 *   0.86902    1.000000    
     85 O     c    0.330844 *  0.734389 *  0.150350 *   0.86902    1.000000    
     86 O     c    0.634786 *  0.280296 *  0.143645 *   0.86902    1.000000    
     87 O     c    0.639687 *  0.788768 *  0.273885 *   0.86902    1.000000    
     88 O     c    0.336882 *  0.211446 *  0.275713 *   0.86902    1.000000    
     89 O     c    0.844715 *  0.219744 *  0.146614 *   0.86902    1.000000    
     90 O     c    0.148223 *  0.789038 *  0.155920 *   0.86902    1.000000    
     91 O     c    0.172647 *  0.286331 *  0.280436 *   0.86902    1.000000    
     92 O     c    0.871699 *  0.735909 *  0.273614 *   0.86902    1.000000    
     93 O     c    0.634740 *  0.226067 *  0.019461 *   0.86902    1.000000    
     94 O     c    0.355682 *  0.777467 *  0.028300 *   0.86902    1.000000    
     95 O     c    0.355676 *  0.266344 *  0.398839 *   0.86902    1.000000    
     96 O     c    0.654021 *  0.755187 *  0.401621 *   0.86902    1.000000    
     97 O     c    0.134031 *  0.736290 *  0.033007 *   0.86902    1.000000    
     98 O     c    0.852735 *  0.277287 *  0.020908 *   0.86902    1.000000    
     99 O     c    0.858004 *  0.764222 *  0.402197 *   0.86902    1.000000    
    100 O     c    0.150240 *  0.227789 *  0.402391 *   0.86902    1.000000    
    101 O     c    0.502167 *  0.975786 *  0.134610 *   0.86902    1.000000    
    102 O     c    0.491774 *  0.998535 *  0.318398 *   0.86902    1.000000    
    103 O     c    0.992426 *  0.502912 *  0.134311 *   0.86902    1.000000    
    104 O     c    0.003773 *  0.477516 *  0.319772 *   0.86902    1.000000    
    105 O     c    0.743888 *  0.255587 *  0.463236 *   0.86902    1.000000    
    106 O     c    0.244589 *  0.748990 *  0.476595 *   0.86902    1.000000    
    107 O     c    0.253461 *  0.248366 *  0.472076 *   0.86902    1.000000    
    108 O     c    0.754090 *  0.750284 *  0.477458 *   0.86902    1.000000    
    109 O     c    0.253759 *  0.257927 *  0.189168 *   0.86902    1.000000    
    110 O     c    0.754959 *  0.758598 *  0.247693 *   0.86902    1.000000    
    111 O     c    0.738839 *  0.247385 *  0.209100 *   0.86902    1.000000    
    112 O     c    0.241914 *  0.754213 *  0.239368 *   0.86902    1.000000    
    113 Si    c    0.712993 *  0.504258 *  0.492517 *   4.00000    1.000000    
    114 Si    c    0.282364 *  0.497022 *  0.000725 *   4.00000    1.000000    
    115 Si    c    0.215041 *  0.999520 *  0.001273 *   4.00000    1.000000    
    116 Si    c    0.781103 *  0.999584 *  0.493443 *   4.00000    1.000000    
    117 Si    c    0.717145 *  0.508529 *  0.243552 *   4.00000    1.000000    
    118 Si    c    0.279843 *  0.488679 *  0.250014 *   4.00000    1.000000    
    119 Si    c    0.217494 *  0.012463 *  0.250231 *   4.00000    1.000000    
    120 Si    c    0.782892 *  0.995558 *  0.246608 *   4.00000    1.000000    
    121 Si    c    0.682296 *  0.720527 *  0.471769 *   4.00000    1.000000    
    122 Si    c    0.323805 *  0.286427 *  0.470115 *   4.00000    1.000000    
    123 Si    c    0.315478 *  0.712595 *  0.477637 *   4.00000    1.000000    
    124 Si    c    0.673180 *  0.292494 *  0.468029 *   4.00000    1.000000    
    125 Si    c    0.182152 *  0.215518 *  0.474761 *   4.00000    1.000000    
    126 Si    c    0.824370 *  0.788887 *  0.471565 *   4.00000    1.000000    
    127 Si    c    0.813983 *  0.216379 *  0.466983 *   4.00000    1.000000    
    128 Si    c    0.174340 *  0.788482 *  0.475908 *   4.00000    1.000000    
    129 Si    c    0.629543 *  0.808612 *  0.104048 *   4.00000    1.000000    
    130 Si    c    0.376559 *  0.186413 *  0.097813 *   4.00000    1.000000    
    131 Si    c    0.364263 *  0.803534 *  0.348618 *   4.00000    1.000000    
    132 Si    c    0.626863 *  0.202353 *  0.339752 *   4.00000    1.000000    
    133 Si    c    0.119523 *  0.322775 *  0.095995 *   4.00000    1.000000    
    134 Si    c    0.875387 *  0.689666 *  0.099842 *   4.00000    1.000000    
    135 Si    c    0.870982 *  0.307840 *  0.340970 *   4.00000    1.000000    
    136 Si    c    0.123380 *  0.689537 *  0.349282 *   4.00000    1.000000    
    137 Si    c    0.308795 *  0.709033 *  0.224976 *   4.00000    1.000000    
    138 Si    c    0.673297 *  0.301955 *  0.210489 *   4.00000    1.000000    
    139 Si    c    0.686431 *  0.723453 *  0.230791 *   4.00000    1.000000    
    140 Si    c    0.321824 *  0.285615 *  0.215126 *   4.00000    1.000000    
    141 Si    c    0.808901 *  0.213172 *  0.217159 *   4.00000    1.000000    
    142 Si    c    0.174722 *  0.802335 *  0.230401 *   4.00000    1.000000    
    143 Si    c    0.186454 *  0.225164 *  0.213969 *   4.00000    1.000000    
    144 Si    c    0.823150 *  0.789400 *  0.224919 *   4.00000    1.000000    
    145 Si    c    0.370150 *  0.808123 *  0.104016 *   4.00000    1.000000    
    146 Si    c    0.625046 *  0.188256 *  0.094504 *   4.00000    1.000000    
    147 Si    c    0.622693 *  0.826528 *  0.347513 *   4.00000    1.000000    
    148 Si    c    0.372731 *  0.184954 *  0.343525 *   4.00000    1.000000    
    149 Si    c    0.862799 *  0.309068 *  0.097071 *   4.00000    1.000000    
    150 Si    c    0.129777 *  0.698204 *  0.108565 *   4.00000    1.000000    
    151 Si    c    0.132683 *  0.308208 *  0.345812 *   4.00000    1.000000    
    152 Si    c    0.873042 *  0.683942 *  0.345982 *   4.00000    1.000000    
    153 Si    c    0.499142 *  0.860866 *  0.154577 *   4.00000    1.000000    
    154 Si    c    0.502168 *  0.093370 *  0.142414 *   4.00000    1.000000    
    155 Si    c    0.492143 *  0.880785 *  0.312044 *   4.00000    1.000000    
    156 Si    c    0.500951 *  0.112470 *  0.300236 *   4.00000    1.000000    
    157 Si    c    0.992422 *  0.385050 *  0.141421 *   4.00000    1.000000    
    158 Si    c    0.000286 *  0.616183 *  0.155116 *   4.00000    1.000000    
    159 Si    c    0.001600 *  0.363495 *  0.299042 *   4.00000    1.000000    
    160 Si    c    0.999696 *  0.595204 *  0.313081 *   4.00000    1.000000    
    161 Si    c    0.702544 *  0.999750 *  0.120211 *   4.00000    1.000000    
    162 Si    c    0.297271 *  0.001040 *  0.125097 *   4.00000    1.000000    
    163 Si    c    0.296039 *  0.002216 *  0.375277 *   4.00000    1.000000    
    164 Si    c    0.700637 *  0.010517 *  0.368051 *   4.00000    1.000000    
    165 Si    c    0.201108 *  0.501043 *  0.125401 *   4.00000    1.000000    
    166 Si    c    0.794029 *  0.507765 *  0.117661 *   4.00000    1.000000    
    167 Si    c    0.796117 *  0.495646 *  0.368132 *   4.00000    1.000000    
    168 Si    c    0.201069 *  0.500000 *  0.375000 *   4.00000    1.000000    
    169 O     c    0.759004 *  0.984012 *  0.569471 *   0.86902    1.000000    
    170 O     c    0.239494 *  0.982128 *  0.576529 *   0.86902    1.000000    
    171 O     c    0.273360 *  0.005698 *  0.951563 *   0.86902    1.000000    
    172 O     c    0.721158 *  0.002686 *  0.945297 *   0.86902    1.000000    
    173 O     c    0.258288 *  0.480502 *  0.576089 *   0.86902    1.000000    
    174 O     c    0.736619 *  0.520685 *  0.567754 *   0.86902    1.000000    
    175 O     c    0.771364 *  0.489685 *  0.943566 *   0.86902    1.000000    
    176 O     c    0.223711 *  0.505998 *  0.951300 *   0.86902    1.000000    
    177 O     c    0.676781 *  0.608225 *  0.749444 *   0.86902    1.000000    
    178 O     c    0.327804 *  0.399509 *  0.736835 *   0.86902    1.000000    
    179 O     c    0.312300 *  0.591572 *  0.734167 *   0.86902    1.000000    
    180 O     c    0.677236 *  0.420186 *  0.713534 *   0.86902    1.000000    
    181 O     c    0.179746 *  0.108437 *  0.726442 *   0.86902    1.000000    
    182 O     c    0.831070 *  0.907540 *  0.731243 *   0.86902    1.000000    
    183 O     c    0.816265 *  0.099877 *  0.739590 *   0.86902    1.000000    
    184 O     c    0.173458 *  0.917989 *  0.747504 *   0.86902    1.000000    
    185 O     c    0.648712 *  0.922651 *  0.607183 *   0.86902    1.000000    
    186 O     c    0.323017 *  0.108327 *  0.610782 *   0.86902    1.000000    
    187 O     c    0.317006 *  0.893379 *  0.856743 *   0.86902    1.000000    
    188 O     c    0.680390 *  0.120710 *  0.848635 *   0.86902    1.000000    
    189 O     c    0.144331 *  0.432317 *  0.608083 *   0.86902    1.000000    
    190 O     c    0.849295 *  0.579171 *  0.597795 *   0.86902    1.000000    
    191 O     c    0.850924 *  0.417345 *  0.862126 *   0.86902    1.000000    
    192 O     c    0.173894 *  0.603470 *  0.851251 *   0.86902    1.000000    
    193 O     c    0.558504 *  0.803118 *  0.625812 *   0.86902    1.000000    
    194 O     c    0.442837 *  0.136255 *  0.604359 *   0.86902    1.000000    
    195 O     c    0.433938 *  0.839944 *  0.852494 *   0.86902    1.000000    
    196 O     c    0.560596 *  0.151446 *  0.839047 *   0.86902    1.000000    
    197 O     c    0.046100 *  0.334685 *  0.597483 *   0.86902    1.000000    
    198 O     c    0.946213 *  0.682791 *  0.622451 *   0.86902    1.000000    
    199 O     c    0.944471 *  0.308052 *  0.833508 *   0.86902    1.000000    
    200 O     c    0.055752 *  0.643574 *  0.853504 *   0.86902    1.000000    
    201 O     c    0.640897 *  0.768733 *  0.529664 *   0.86902    1.000000    
    202 O     c    0.366856 *  0.232822 *  0.524777 *   0.86902    1.000000    
    203 O     c    0.347726 *  0.723939 *  0.905571 *   0.86902    1.000000    
    204 O     c    0.636230 *  0.280878 *  0.898826 *   0.86902    1.000000    
    205 O     c    0.143516 *  0.282654 *  0.525597 *   0.86902    1.000000    
    206 O     c    0.867974 *  0.738889 *  0.527342 *   0.86902    1.000000    
    207 O     c    0.847789 *  0.229254 *  0.895803 *   0.86902    1.000000    
    208 O     c    0.138006 *  0.765378 *  0.908174 *   0.86902    1.000000    
    209 O     c    0.369221 *  0.270682 *  0.654076 *   0.86902    1.000000    
    210 O     c    0.671688 *  0.741267 *  0.652759 *   0.86902    1.000000    
    211 O     c    0.633634 *  0.261306 *  0.771369 *   0.86902    1.000000    
    212 O     c    0.356530 *  0.755589 *  0.776390 *   0.86902    1.000000    
    213 O     c    0.835822 *  0.758089 *  0.649271 *   0.86902    1.000000    
    214 O     c    0.139068 *  0.248602 *  0.654982 *   0.86902    1.000000    
    215 O     c    0.128085 *  0.747128 *  0.779541 *   0.86902    1.000000    
    216 O     c    0.840976 *  0.284320 *  0.769884 *   0.86902    1.000000    
    217 O     c    0.493244 *  0.849171 *  0.734466 *   0.86902    1.000000    
    218 O     c    0.505528 *  0.125219 *  0.719973 *   0.86902    1.000000    
    219 O     c    0.998167 *  0.353275 *  0.718936 *   0.86902    1.000000    
    220 O     c    0.999783 *  0.627096 *  0.735269 *   0.86902    1.000000    
    221 O     c    0.275985 *  0.992854 *  0.702012 *   0.86902    1.000000    
    222 O     c    0.725294 *  0.986122 *  0.696105 *   0.86902    1.000000    
    223 O     c    0.758590 *  0.981197 *  0.822078 *   0.86902    1.000000    
    224 O     c    0.240268 *  0.031612 *  0.825714 *   0.86902    1.000000    
    225 O     c    0.773672 *  0.533307 *  0.693328 *   0.86902    1.000000    
    226 O     c    0.220744 *  0.476948 *  0.701466 *   0.86902    1.000000    
    227 O     c    0.258892 *  0.477918 *  0.826888 *   0.86902    1.000000    
    228 O     c    0.741487 *  0.472402 *  0.815974 *   0.86902    1.000000    
    229 O     c    0.321270 *  0.597283 *  0.996712 *   0.86902    1.000000    
    230 O     c    0.670321 *  0.407684 *  0.988255 *   0.86902    1.000000    
    231 O     c    0.674791 *  0.602220 *  0.972405 *   0.86902    1.000000    
    232 O     c    0.325105 *  0.403978 *  0.981488 *   0.86902    1.000000    
    233 O     c    0.818229 *  0.100817 *  0.985146 *   0.86902    1.000000    
    234 O     c    0.172393 *  0.906964 *  0.983071 *   0.86902    1.000000    
    235 O     c    0.176252 *  0.101173 *  0.996374 *   0.86902    1.000000    
    236 O     c    0.825380 *  0.907393 *  0.976570 *   0.86902    1.000000    
    237 O     c    0.350368 *  0.920821 *  0.615449 *   0.86902    1.000000    
    238 O     c    0.677858 *  0.109694 *  0.612225 *   0.86902    1.000000    
    239 O     c    0.644234 *  0.938363 *  0.856464 *   0.86902    1.000000    
    240 O     c    0.351774 *  0.077760 *  0.868780 *   0.86902    1.000000    
    241 O     c    0.815789 *  0.395754 *  0.615981 *   0.86902    1.000000    
    242 O     c    0.181194 *  0.614359 *  0.620774 *   0.86902    1.000000    
    243 O     c    0.149653 *  0.416483 *  0.871800 *   0.86902    1.000000    
    244 O     c    0.819956 *  0.603364 *  0.851069 *   0.86902    1.000000    
    245 O     c    0.442590 *  0.804817 *  0.619420 *   0.86902    1.000000    
    246 O     c    0.558816 *  0.139450 *  0.602102 *   0.86902    1.000000    
    247 O     c    0.549079 *  0.830964 *  0.851683 *   0.86902    1.000000    
    248 O     c    0.445185 *  0.179210 *  0.828454 *   0.86902    1.000000    
    249 O     c    0.931937 *  0.342674 *  0.607499 *   0.86902    1.000000    
    250 O     c    0.062712 *  0.657303 *  0.623967 *   0.86902    1.000000    
    251 O     c    0.060826 *  0.305405 *  0.827629 *   0.86902    1.000000    
    252 O     c    0.939691 *  0.633389 *  0.852620 *   0.86902    1.000000    
    253 O     c    0.330847 *  0.734391 *  0.650350 *   0.86902    1.000000    
    254 O     c    0.634784 *  0.280305 *  0.643641 *   0.86902    1.000000    
    255 O     c    0.639690 *  0.788773 *  0.773885 *   0.86902    1.000000    
    256 O     c    0.336880 *  0.211447 *  0.775715 *   0.86902    1.000000    
    257 O     c    0.844716 *  0.219745 *  0.646615 *   0.86902    1.000000    
    258 O     c    0.148224 *  0.789038 *  0.655920 *   0.86902    1.000000    
    259 O     c    0.172644 *  0.286332 *  0.780435 *   0.86902    1.000000    
    260 O     c    0.871702 *  0.735908 *  0.773613 *   0.86902    1.000000    
    261 O     c    0.634749 *  0.226052 *  0.519462 *   0.86902    1.000000    
    262 O     c    0.355682 *  0.777471 *  0.528300 *   0.86902    1.000000    
    263 O     c    0.355677 *  0.266344 *  0.898840 *   0.86902    1.000000    
    264 O     c    0.654021 *  0.755188 *  0.901621 *   0.86902    1.000000    
    265 O     c    0.134030 *  0.736293 *  0.533008 *   0.86902    1.000000    
    266 O     c    0.852738 *  0.277282 *  0.520908 *   0.86902    1.000000    
    267 O     c    0.858005 *  0.764219 *  0.902196 *   0.86902    1.000000    
    268 O     c    0.150241 *  0.227793 *  0.902391 *   0.86902    1.000000    
    269 O     c    0.502179 *  0.975785 *  0.634609 *   0.86902    1.000000    
    270 O     c    0.491773 *  0.998535 *  0.818396 *   0.86902    1.000000    
    271 O     c    0.992428 *  0.502912 *  0.634313 *   0.86902    1.000000    
    272 O     c    0.003771 *  0.477514 *  0.819773 *   0.86902    1.000000    
    273 O     c    0.743884 *  0.255587 *  0.963239 *   0.86902    1.000000    
    274 O     c    0.244589 *  0.748990 *  0.976595 *   0.86902    1.000000    
    275 O     c    0.253463 *  0.248366 *  0.972077 *   0.86902    1.000000    
    276 O     c    0.754091 *  0.750289 *  0.977457 *   0.86902    1.000000    
    277 O     c    0.253757 *  0.257927 *  0.689170 *   0.86902    1.000000    
    278 O     c    0.754963 *  0.758598 *  0.747695 *   0.86902    1.000000    
    279 O     c    0.738838 *  0.247393 *  0.709095 *   0.86902    1.000000    
    280 O     c    0.241916 *  0.754215 *  0.739367 *   0.86902    1.000000    
    281 Si    c    0.712993 *  0.504262 *  0.992517 *   4.00000    1.000000    
    282 Si    c    0.282364 *  0.497024 *  0.500724 *   4.00000    1.000000    
    283 Si    c    0.215040 *  0.999519 *  0.501272 *   4.00000    1.000000    
    284 Si    c    0.781104 *  0.999582 *  0.993443 *   4.00000    1.000000    
    285 Si    c    0.717144 *  0.508530 *  0.743553 *   4.00000    1.000000    
    286 Si    c    0.279843 *  0.488679 *  0.750013 *   4.00000    1.000000    
    287 Si    c    0.217493 *  0.012463 *  0.750231 *   4.00000    1.000000    
    288 Si    c    0.782891 *  0.995555 *  0.746608 *   4.00000    1.000000    
    289 Si    c    0.682296 *  0.720533 *  0.971770 *   4.00000    1.000000    
    290 Si    c    0.323807 *  0.286425 *  0.970116 *   4.00000    1.000000    
    291 Si    c    0.315479 *  0.712593 *  0.977637 *   4.00000    1.000000    
    292 Si    c    0.673177 *  0.292499 *  0.968027 *   4.00000    1.000000    
    293 Si    c    0.182153 *  0.215519 *  0.974760 *   4.00000    1.000000    
    294 Si    c    0.824371 *  0.788889 *  0.971563 *   4.00000    1.000000    
    295 Si    c    0.813979 *  0.216379 *  0.966985 *   4.00000    1.000000    
    296 Si    c    0.174341 *  0.788482 *  0.975909 *   4.00000    1.000000    
    297 Si    c    0.629544 *  0.808605 *  0.604047 *   4.00000    1.000000    
    298 Si    c    0.376553 *  0.186410 *  0.597812 *   4.00000    1.000000    
    299 Si    c    0.364263 *  0.803533 *  0.848617 *   4.00000    1.000000    
    300 Si    c    0.626862 *  0.202352 *  0.839750 *   4.00000    1.000000    
    301 Si    c    0.119522 *  0.322774 *  0.595994 *   4.00000    1.000000    
    302 Si    c    0.875388 *  0.689665 *  0.599843 *   4.00000    1.000000    
    303 Si    c    0.870979 *  0.307837 *  0.840972 *   4.00000    1.000000    
    304 Si    c    0.123382 *  0.689537 *  0.849284 *   4.00000    1.000000    
    305 Si    c    0.308796 *  0.709033 *  0.724975 *   4.00000    1.000000    
    306 Si    c    0.673294 *  0.301959 *  0.710487 *   4.00000    1.000000    
    307 Si    c    0.686434 *  0.723456 *  0.730792 *   4.00000    1.000000    
    308 Si    c    0.321823 *  0.285614 *  0.715127 *   4.00000    1.000000    
    309 Si    c    0.808898 *  0.213173 *  0.717157 *   4.00000    1.000000    
    310 Si    c    0.174722 *  0.802335 *  0.730402 *   4.00000    1.000000    
    311 Si    c    0.186452 *  0.225163 *  0.713969 *   4.00000    1.000000    
    312 Si    c    0.823153 *  0.789401 *  0.724919 *   4.00000    1.000000    
    313 Si    c    0.370151 *  0.808128 *  0.604015 *   4.00000    1.000000    
    314 Si    c    0.625041 *  0.188258 *  0.594507 *   4.00000    1.000000    
    315 Si    c    0.622694 *  0.826530 *  0.847513 *   4.00000    1.000000    
    316 Si    c    0.372731 *  0.184954 *  0.843525 *   4.00000    1.000000    
    317 Si    c    0.862799 *  0.309068 *  0.597071 *   4.00000    1.000000    
    318 Si    c    0.129777 *  0.698204 *  0.608565 *   4.00000    1.000000    
    319 Si    c    0.132681 *  0.308210 *  0.845811 *   4.00000    1.000000    
    320 Si    c    0.873044 *  0.683940 *  0.845981 *   4.00000    1.000000    
    321 Si    c    0.499145 *  0.860866 *  0.654576 *   4.00000    1.000000    
    322 Si    c    0.502165 *  0.093371 *  0.642412 *   4.00000    1.000000    
    323 Si    c    0.492142 *  0.880785 *  0.812043 *   4.00000    1.000000    
    324 Si    c    0.500950 *  0.112470 *  0.800235 *   4.00000    1.000000    
    325 Si    c    0.992422 *  0.385050 *  0.641423 *   4.00000    1.000000    
    326 Si    c    0.000287 *  0.616183 *  0.655117 *   4.00000    1.000000    
    327 Si    c    0.001598 *  0.363494 *  0.799043 *   4.00000    1.000000    
    328 Si    c    0.999698 *  0.595203 *  0.813082 *   4.00000    1.000000    
    329 Si    c    0.702540 *  0.999748 *  0.620214 *   4.00000    1.000000    
    330 Si    c    0.297267 *  0.001039 *  0.625096 *   4.00000    1.000000    
    331 Si    c    0.296040 *  0.002215 *  0.875277 *   4.00000    1.000000    
    332 Si    c    0.700637 *  0.010519 *  0.868051 *   4.00000    1.000000    
    333 Si    c    0.201107 *  0.501042 *  0.625401 *   4.00000    1.000000    
    334 Si    c    0.794029 *  0.507764 *  0.617661 *   4.00000    1.000000    
    335 Si    c    0.796116 *  0.495647 *  0.868132 *   4.00000    1.000000    
    336 Si    c    0.201070 *  0.500000 *  0.875000 *   4.00000    1.000000    
    337 O     s    0.759006 *  0.983990 *  0.069469 *  -2.86902    1.000000    
    338 O     s    0.239497 *  0.982139 *  0.076530 *  -2.86902    1.000000    
    339 O     s    0.273359 *  0.005701 *  0.451563 *  -2.86902    1.000000    
    340 O     s    0.721158 *  0.002683 *  0.445296 *  -2.86902    1.000000    
    341 O     s    0.258288 *  0.480504 *  0.076090 *  -2.86902    1.000000    
    342 O     s    0.736618 *  0.520678 *  0.067755 *  -2.86902    1.000000    
    343 O     s    0.771364 *  0.489674 *  0.443566 *  -2.86902    1.000000    
    344 O     s    0.223710 *  0.506007 *  0.451299 *  -2.86902    1.000000    
    345 O     s    0.676779 *  0.608222 *  0.249442 *  -2.86902    1.000000    
    346 O     s    0.327804 *  0.399509 *  0.236836 *  -2.86902    1.000000    
    347 O     s    0.312300 *  0.591572 *  0.234169 *  -2.86902    1.000000    
    348 O     s    0.677240 *  0.420182 *  0.213531 *  -2.86902    1.000000    
    349 O     s    0.179748 *  0.108438 *  0.226441 *  -2.86902    1.000000    
    350 O     s    0.831067 *  0.907539 *  0.231240 *  -2.86902    1.000000    
    351 O     s    0.816272 *  0.099877 *  0.239594 *  -2.86902    1.000000    
    352 O     s    0.173459 *  0.917990 *  0.247502 *  -2.86902    1.000000    
    353 O     s    0.648712 *  0.922657 *  0.107192 *  -2.86902    1.000000    
    354 O     s    0.323029 *  0.108323 *  0.110789 *  -2.86902    1.000000    
    355 O     s    0.317006 *  0.893379 *  0.356745 *  -2.86902    1.000000    
    356 O     s    0.680390 *  0.120709 *  0.348636 *  -2.86902    1.000000    
    357 O     s    0.144331 *  0.432318 *  0.108083 *  -2.86902    1.000000    
    358 O     s    0.849294 *  0.579172 *  0.097790 *  -2.86902    1.000000    
    359 O     s    0.850927 *  0.417348 *  0.362123 *  -2.86902    1.000000    
    360 O     s    0.173890 *  0.603466 *  0.351246 *  -2.86902    1.000000    
    361 O     s    0.558503 *  0.803125 *  0.125809 *  -2.86902    1.000000    
    362 O     s    0.442848 *  0.136276 *  0.104357 *  -2.86902    1.000000    
    363 O     s    0.433937 *  0.839944 *  0.352494 *  -2.86902    1.000000    
    364 O     s    0.560597 *  0.151447 *  0.339049 *  -2.86902    1.000000    
    365 O     s    0.046101 *  0.334686 *  0.097482 *  -2.86902    1.000000    
    366 O     s    0.946212 *  0.682792 *  0.122450 *  -2.86902    1.000000    
    367 O     s    0.944474 *  0.308054 *  0.333507 *  -2.86902    1.000000    
    368 O     s    0.055749 *  0.643578 *  0.353503 *  -2.86902    1.000000    
    369 O     s    0.640899 *  0.768746 *  0.029663 *  -2.86902    1.000000    
    370 O     s    0.366857 *  0.232819 *  0.024777 *  -2.86902    1.000000    
    371 O     s    0.347726 *  0.723938 *  0.405571 *  -2.86902    1.000000    
    372 O     s    0.636232 *  0.280877 *  0.398829 *  -2.86902    1.000000    
    373 O     s    0.143518 *  0.282654 *  0.025598 *  -2.86902    1.000000    
    374 O     s    0.867974 *  0.738895 *  0.027342 *  -2.86902    1.000000    
    375 O     s    0.847793 *  0.229257 *  0.395801 *  -2.86902    1.000000    
    376 O     s    0.138006 *  0.765374 *  0.408173 *  -2.86902    1.000000    
    377 O     s    0.369222 *  0.270688 *  0.154075 *  -2.86902    1.000000    
    378 O     s    0.671685 *  0.741267 *  0.152759 *  -2.86902    1.000000    
    379 O     s    0.633635 *  0.261309 *  0.271372 *  -2.86902    1.000000    
    380 O     s    0.356529 *  0.755591 *  0.276390 *  -2.86902    1.000000    
    381 O     s    0.835820 *  0.758087 *  0.149271 *  -2.86902    1.000000    
    382 O     s    0.139068 *  0.248604 *  0.154983 *  -2.86902    1.000000    
    383 O     s    0.128084 *  0.747130 *  0.279541 *  -2.86902    1.000000    
    384 O     s    0.840980 *  0.284324 *  0.269882 *  -2.86902    1.000000    
    385 O     s    0.493245 *  0.849170 *  0.234467 *  -2.86902    1.000000    
    386 O     s    0.505531 *  0.125219 *  0.219975 *  -2.86902    1.000000    
    387 O     s    0.998168 *  0.353277 *  0.218935 *  -2.86902    1.000000    
    388 O     s    0.999781 *  0.627096 *  0.235268 *  -2.86902    1.000000    
    389 O     s    0.275987 *  0.992853 *  0.202013 *  -2.86902    1.000000    
    390 O     s    0.725295 *  0.986143 *  0.196104 *  -2.86902    1.000000    
    391 O     s    0.758591 *  0.981197 *  0.322077 *  -2.86902    1.000000    
    392 O     s    0.240268 *  0.031611 *  0.325714 *  -2.86902    1.000000    
    393 O     s    0.773673 *  0.533312 *  0.193327 *  -2.86902    1.000000    
    394 O     s    0.220744 *  0.476947 *  0.201467 *  -2.86902    1.000000    
    395 O     s    0.258892 *  0.477917 *  0.326889 *  -2.86902    1.000000    
    396 O     s    0.741488 *  0.472402 *  0.315973 *  -2.86902    1.000000    
    397 O     s    0.321270 *  0.597285 *  0.496715 *  -2.86902    1.000000    
    398 O     s    0.670322 *  0.407678 *  0.488261 *  -2.86902    1.000000    
    399 O     s    0.674792 *  0.602213 *  0.472399 *  -2.86902    1.000000    
    400 O     s    0.325103 *  0.403980 *  0.481485 *  -2.86902    1.000000    
    401 O     s    0.818231 *  0.100814 *  0.485139 *  -2.86902    1.000000    
    402 O     s    0.172391 *  0.906964 *  0.483066 *  -2.86902    1.000000    
    403 O     s    0.176251 *  0.101173 *  0.496376 *  -2.86902    1.000000    
    404 O     s    0.825377 *  0.907391 *  0.476578 *  -2.86902    1.000000    
    405 O     s    0.350368 *  0.920817 *  0.115448 *  -2.86902    1.000000    
    406 O     s    0.677872 *  0.109698 *  0.112201 *  -2.86902    1.000000    
    407 O     s    0.644235 *  0.938361 *  0.356462 *  -2.86902    1.000000    
    408 O     s    0.351774 *  0.077760 *  0.368780 *  -2.86902    1.000000    
    409 O     s    0.815792 *  0.395756 *  0.115986 *  -2.86902    1.000000    
    410 O     s    0.181194 *  0.614359 *  0.120776 *  -2.86902    1.000000    
    411 O     s    0.149655 *  0.416479 *  0.371804 *  -2.86902    1.000000    
    412 O     s    0.819953 *  0.603366 *  0.351075 *  -2.86902    1.000000    
    413 O     s    0.442589 *  0.804810 *  0.119424 *  -2.86902    1.000000    
    414 O     s    0.558829 *  0.139426 *  0.102109 *  -2.86902    1.000000    
    415 O     s    0.549079 *  0.830964 *  0.351685 *  -2.86902    1.000000    
    416 O     s    0.445186 *  0.179210 *  0.328455 *  -2.86902    1.000000    
    417 O     s    0.931938 *  0.342670 *  0.107498 *  -2.86902    1.000000    
    418 O     s    0.062711 *  0.657303 *  0.123967 *  -2.86902    1.000000    
    419 O     s    0.060828 *  0.305406 *  0.327627 *  -2.86902    1.000000    
    420 O     s    0.939689 *  0.633388 *  0.352619 *  -2.86902    1.000000    
    421 O     s    0.330844 *  0.734389 *  0.150350 *  -2.86902    1.000000    
    422 O     s    0.634786 *  0.280296 *  0.143645 *  -2.86902    1.000000    
    423 O     s    0.639687 *  0.788768 *  0.273885 *  -2.86902    1.000000    
    424 O     s    0.336882 *  0.211446 *  0.275713 *  -2.86902    1.000000    
    425 O     s    0.844715 *  0.219744 *  0.146614 *  -2.86902    1.000000    
    426 O     s    0.148223 *  0.789038 *  0.155920 *  -2.86902    1.000000    
    427 O     s    0.172647 *  0.286331 *  0.280436 *  -2.86902    1.000000    
    428 O     s    0.871699 *  0.735909 *  0.273614 *  -2.86902    1.000000    
    429 O     s    0.634740 *  0.226067 *  0.019461 *  -2.86902    1.000000    
    430 O     s    0.355682 *  0.777467 *  0.028300 *  -2.86902    1.000000    
    431 O     s    0.355676 *  0.266344 *  0.398839 *  -2.86902    1.000000    
    432 O     s    0.654021 *  0.755187 *  0.401621 *  -2.86902    1.000000    
    433 O     s    0.134031 *  0.736290 *  0.033007 *  -2.86902    1.000000    
    434 O     s    0.852735 *  0.277287 *  0.020908 *  -2.86902    1.000000    
    435 O     s    0.858004 *  0.764222 *  0.402197 *  -2.86902    1.000000    
    436 O     s    0.150240 *  0.227789 *  0.402391 *  -2.86902    1.000000    
    437 O     s    0.502167 *  0.975786 *  0.134610 *  -2.86902    1.000000    
    438 O     s    0.491774 *  0.998535 *  0.318398 *  -2.86902    1.000000    
    439 O     s    0.992426 *  0.502912 *  0.134311 *  -2.86902    1.000000    
    440 O     s    0.003773 *  0.477516 *  0.319772 *  -2.86902    1.000000    
    441 O     s    0.743888 *  0.255587 *  0.463236 *  -2.86902    1.000000    
    442 O     s    0.244589 *  0.748990 *  0.476595 *  -2.86902    1.000000    
    443 O     s    0.253461 *  0.248366 *  0.472076 *  -2.86902    1.000000    
    444 O     s    0.754090 *  0.750284 *  0.477458 *  -2.86902    1.000000    
    445 O     s    0.253759 *  0.257927 *  0.189168 *  -2.86902    1.000000    
    446 O     s    0.754959 *  0.758598 *  0.247693 *  -2.86902    1.000000    
    447 O     s    0.738839 *  0.247385 *  0.209100 *  -2.86902    1.000000    
    448 O     s    0.241914 *  0.754213 *  0.239368 *  -2.86902    1.000000    
    449 O     s    0.759004 *  0.984012 *  0.569471 *  -2.86902    1.000000    
    450 O     s    0.239494 *  0.982128 *  0.576529 *  -2.86902    1.000000    
    451 O     s    0.273360 *  0.005698 *  0.951563 *  -2.86902    1.000000    
    452 O     s    0.721158 *  0.002686 *  0.945297 *  -2.86902    1.000000    
    453 O     s    0.258288 *  0.480502 *  0.576089 *  -2.86902    1.000000    
    454 O     s    0.736619 *  0.520685 *  0.567754 *  -2.86902    1.000000    
    455 O     s    0.771364 *  0.489685 *  0.943566 *  -2.86902    1.000000    
    456 O     s    0.223711 *  0.505998 *  0.951300 *  -2.86902    1.000000    
    457 O     s    0.676781 *  0.608225 *  0.749444 *  -2.86902    1.000000    
    458 O     s    0.327804 *  0.399509 *  0.736835 *  -2.86902    1.000000    
    459 O     s    0.312300 *  0.591572 *  0.734167 *  -2.86902    1.000000    
    460 O     s    0.677236 *  0.420186 *  0.713534 *  -2.86902    1.000000    
    461 O     s    0.179746 *  0.108437 *  0.726442 *  -2.86902    1.000000    
    462 O     s    0.831070 *  0.907540 *  0.731243 *  -2.86902    1.000000    
    463 O     s    0.816265 *  0.099877 *  0.739590 *  -2.86902    1.000000    
    464 O     s    0.173458 *  0.917989 *  0.747504 *  -2.86902    1.000000    
    465 O     s    0.648712 *  0.922651 *  0.607183 *  -2.86902    1.000000    
    466 O     s    0.323017 *  0.108327 *  0.610782 *  -2.86902    1.000000    
    467 O     s    0.317006 *  0.893379 *  0.856743 *  -2.86902    1.000000    
    468 O     s    0.680390 *  0.120710 *  0.848635 *  -2.86902    1.000000    
    469 O     s    0.144331 *  0.432317 *  0.608083 *  -2.86902    1.000000    
    470 O     s    0.849295 *  0.579171 *  0.597795 *  -2.86902    1.000000    
    471 O     s    0.850924 *  0.417345 *  0.862126 *  -2.86902    1.000000    
    472 O     s    0.173894 *  0.603470 *  0.851251 *  -2.86902    1.000000    
    473 O     s    0.558504 *  0.803118 *  0.625812 *  -2.86902    1.000000    
    474 O     s    0.442837 *  0.136255 *  0.604359 *  -2.86902    1.000000    
    475 O     s    0.433938 *  0.839944 *  0.852494 *  -2.86902    1.000000    
    476 O     s    0.560596 *  0.151446 *  0.839047 *  -2.86902    1.000000    
    477 O     s    0.046100 *  0.334685 *  0.597483 *  -2.86902    1.000000    
    478 O     s    0.946213 *  0.682791 *  0.622451 *  -2.86902    1.000000    
    479 O     s    0.944471 *  0.308052 *  0.833508 *  -2.86902    1.000000    
    480 O     s    0.055752 *  0.643574 *  0.853504 *  -2.86902    1.000000    
    481 O     s    0.640897 *  0.768733 *  0.529664 *  -2.86902    1.000000    
    482 O     s    0.366856 *  0.232822 *  0.524777 *  -2.86902    1.000000    
    483 O     s    0.347726 *  0.723939 *  0.905571 *  -2.86902    1.000000    
    484 O     s    0.636230 *  0.280878 *  0.898826 *  -2.86902    1.000000    
    485 O     s    0.143516 *  0.282654 *  0.525597 *  -2.86902    1.000000    
    486 O     s    0.867974 *  0.738889 *  0.527342 *  -2.86902    1.000000    
    487 O     s    0.847789 *  0.229254 *  0.895803 *  -2.86902    1.000000    
    488 O     s    0.138006 *  0.765378 *  0.908174 *  -2.86902    1.000000    
    489 O     s    0.369221 *  0.270682 *  0.654076 *  -2.86902    1.000000    
    490 O     s    0.671688 *  0.741267 *  0.652759 *  -2.86902    1.000000    
    491 O     s    0.633634 *  0.261306 *  0.771369 *  -2.86902    1.000000    
    492 O     s    0.356530 *  0.755589 *  0.776390 *  -2.86902    1.000000    
    493 O     s    0.835822 *  0.758089 *  0.649271 *  -2.86902    1.000000    
    494 O     s    0.139068 *  0.248602 *  0.654982 *  -2.86902    1.000000    
    495 O     s    0.128085 *  0.747128 *  0.779541 *  -2.86902    1.000000    
    496 O     s    0.840976 *  0.284320 *  0.769884 *  -2.86902    1.000000    
    497 O     s    0.493244 *  0.849171 *  0.734466 *  -2.86902    1.000000    
    498 O     s    0.505528 *  0.125219 *  0.719973 *  -2.86902    1.000000    
    499 O     s    0.998167 *  0.353275 *  0.718936 *  -2.86902    1.000000    
    500 O     s    0.999783 *  0.627096 *  0.735269 *  -2.86902    1.000000    
    501 O     s    0.275985 *  0.992854 *  0.702012 *  -2.86902    1.000000    
    502 O     s    0.725294 *  0.986122 *  0.696105 *  -2.86902    1.000000    
    503 O     s    0.758590 *  0.981197 *  0.822078 *  -2.86902    1.000000    
    504 O     s    0.240268 *  0.031612 *  0.825714 *  -2.86902    1.000000    
    505 O     s    0.773672 *  0.533307 *  0.693328 *  -2.86902    1.000000    
    506 O     s    0.220744 *  0.476948 *  0.701466 *  -2.86902    1.000000    
    507 O     s    0.258892 *  0.477918 *  0.826888 *  -2.86902    1.000000    
    508 O     s    0.741487 *  0.472402 *  0.815974 *  -2.86902    1.000000    
    509 O     s    0.321270 *  0.597283 *  0.996712 *  -2.86902    1.000000    
    510 O     s    0.670321 *  0.407684 *  0.988255 *  -2.86902    1.000000    
    511 O     s    0.674791 *  0.602220 *  0.972405 *  -2.86902    1.000000    
    512 O     s    0.325105 *  0.403978 *  0.981488 *  -2.86902    1.000000    
    513 O     s    0.818229 *  0.100817 *  0.985146 *  -2.86902    1.000000    
    514 O     s    0.172393 *  0.906964 *  0.983071 *  -2.86902    1.000000    
    515 O     s    0.176252 *  0.101173 *  0.996374 *  -2.86902    1.000000    
    516 O     s    0.825380 *  0.907393 *  0.976570 *  -2.86902    1.000000    
    517 O     s    0.350368 *  0.920821 *  0.615449 *  -2.86902    1.000000    
    518 O     s    0.677858 *  0.109694 *  0.612225 *  -2.86902    1.000000    
    519 O     s    0.644234 *  0.938363 *  0.856464 *  -2.86902    1.000000    
    520 O     s    0.351774 *  0.077760 *  0.868780 *  -2.86902    1.000000    
    521 O     s    0.815789 *  0.395754 *  0.615981 *  -2.86902    1.000000    
    522 O     s    0.181194 *  0.614359 *  0.620774 *  -2.86902    1.000000    
    523 O     s    0.149653 *  0.416483 *  0.871800 *  -2.86902    1.000000    
    524 O     s    0.819956 *  0.603364 *  0.851069 *  -2.86902    1.000000    
    525 O     s    0.442590 *  0.804817 *  0.619420 *  -2.86902    1.000000    
    526 O     s    0.558816 *  0.139450 *  0.602102 *  -2.86902    1.000000    
    527 O     s    0.549079 *  0.830964 *  0.851683 *  -2.86902    1.000000    
    528 O     s    0.445185 *  0.179210 *  0.828454 *  -2.86902    1.000000    
    529 O     s    0.931937 *  0.342674 *  0.607499 *  -2.86902    1.000000    
    530 O     s    0.062712 *  0.657303 *  0.623967 *  -2.86902    1.000000    
    531 O     s    0.060826 *  0.305405 *  0.827629 *  -2.86902    1.000000    
    532 O     s    0.939691 *  0.633389 *  0.852620 *  -2.86902    1.000000    
    533 O     s    0.330847 *  0.734391 *  0.650350 *  -2.86902    1.000000    
    534 O     s    0.634784 *  0.280305 *  0.643641 *  -2.86902    1.000000    
    535 O     s    0.639690 *  0.788773 *  0.773885 *  -2.86902    1.000000    
    536 O     s    0.336880 *  0.211447 *  0.775715 *  -2.86902    1.000000    
    537 O     s    0.844716 *  0.219745 *  0.646615 *  -2.86902    1.000000    
    538 O     s    0.148224 *  0.789038 *  0.655920 *  -2.86902    1.000000    
    539 O     s    0.172644 *  0.286332 *  0.780435 *  -2.86902    1.000000    
    540 O     s    0.871702 *  0.735908 *  0.773613 *  -2.86902    1.000000    
    541 O     s    0.634749 *  0.226052 *  0.519462 *  -2.86902    1.000000    
    542 O     s    0.355682 *  0.777471 *  0.528300 *  -2.86902    1.000000    
    543 O     s    0.355677 *  0.266344 *  0.898840 *  -2.86902    1.000000    
    544 O     s    0.654021 *  0.755188 *  0.901621 *  -2.86902    1.000000    
    545 O     s    0.134030 *  0.736293 *  0.533008 *  -2.86902    1.000000    
    546 O     s    0.852738 *  0.277282 *  0.520908 *  -2.86902    1.000000    
    547 O     s    0.858005 *  0.764219 *  0.902196 *  -2.86902    1.000000    
    548 O     s    0.150241 *  0.227793 *  0.902391 *  -2.86902    1.000000    
    549 O     s    0.502179 *  0.975785 *  0.634609 *  -2.86902    1.000000    
    550 O     s    0.491773 *  0.998535 *  0.818396 *  -2.86902    1.000000    
    551 O     s    0.992428 *  0.502912 *  0.634313 *  -2.86902    1.000000    
    552 O     s    0.003771 *  0.477514 *  0.819773 *  -2.86902    1.000000    
    553 O     s    0.743884 *  0.255587 *  0.963239 *  -2.86902    1.000000    
    554 O     s    0.244589 *  0.748990 *  0.976595 *  -2.86902    1.000000    
    555 O     s    0.253463 *  0.248366 *  0.972077 *  -2.86902    1.000000    
    556 O     s    0.754091 *  0.750289 *  0.977457 *  -2.86902    1.000000    
    557 O     s    0.253757 *  0.257927 *  0.689170 *  -2.86902    1.000000    
    558 O     s    0.754963 *  0.758598 *  0.747695 *  -2.86902    1.000000    
    559 O     s    0.738838 *  0.247393 *  0.709095 *  -2.86902    1.000000    
    560 O     s    0.241916 *  0.754215 *  0.739367 *  -2.86902    1.000000    
--------------------------------------------------------------------------------



********************************************************************************
*  General input information                                                   *
********************************************************************************

  Species output for all configurations : 

--------------------------------------------------------------------------------
  Species    Type    Atomic    Atomic    Charge       Radii (Angs)     Library
                     Number     Mass       (e)     Cova   Ionic  VDW   Symbol
--------------------------------------------------------------------------------
    O        Core        8      16.00   0.869020   0.730  0.000  1.360 O        
    O        Shell       8       0.00  -2.869020   0.730  0.000  0.000 O        
    Si       Core       14      28.09   4.000000   1.200  0.000  2.100 Si       
--------------------------------------------------------------------------------


  Lattice summation method               =    Ewald          (3-D)
                                         =    Parry          (2-D)
                                         =    Saunders et al (1-D)
  Accuracy factor for lattice sums       =   12.000


  Analytic derivatives to be used

  Time limit = Infinity

  Maximum range for interatomic potentials =    100000.000000 Angstroms

  General interatomic potentials :

--------------------------------------------------------------------------------
Atom  Types   Potential      Parameter       Value         Units   Cutoffs(Ang)
  1     2                                                            Min /  Max 
--------------------------------------------------------------------------------
Si   c O    s Buckingham    Buckingham A     1283.9070    eV        0.000 10.000
                            Buckingham rho  0.32052000    Ang       
                            Buckingham C     10.661580    eV*Ang^6  
--------------------------------------------------------------------------------
O    s O    s Buckingham    Buckingham A     22764.000    eV        0.000 12.000
                            Buckingham rho  0.14900000    Ang       
                            Buckingham C     27.879000    eV*Ang^6  
--------------------------------------------------------------------------------
O    c O    s Spring (c-s)  Spring k 2       74.920000    eV*Ang^-2 0.000  1.100
                            Spring k 4       0.0000000    eV*Ang^-4 
--------------------------------------------------------------------------------

  General Three-body potentials :

--------------------------------------------------------------------------------
  Atoms       Potential      Parameter       Value         Units   Cutoffs(Ang)
  1 / 2 / 3                                                          Min /  Max 
--------------------------------------------------------------------------------
Si    core    Harmonic      Three-body cnst  2.0972400    eV*rad^-2 0.000  1.900
O     shel                  Three-body angl  109.47000    degrees   0.000  1.900
O     shel                  Three-body k4    0.0000000    eV*rad^-4 0.000  3.500
                            Three-body k3    0.0000000    eV*rad^-3 
--------------------------------------------------------------------------------
Si    core    Harmonic      Three-body cnst  2.0972400    eV*rad^-2 0.000  1.900
O     shel                  Three-body angl  109.47000    degrees   0.000  1.900
(    shel                  Three-body k4    0.0000000    eV*rad^-4 0.000  3.500
                            Three-body k3    0.0000000    eV*rad^-3 
--------------------------------------------------------------------------------
Si    core    Harmonic      Three-body cnst  2.0972400    eV*rad^-2 0.000  1.900
(    shel                  Three-body angl  109.47000    degrees   0.000  1.900
(    shel                  Three-body k4    0.0000000    eV*rad^-4 0.000  3.500
                            Three-body k3    0.0000000    eV*rad^-3 
--------------------------------------------------------------------------------

********************************************************************************
*  Output for configuration   1 : ReferenceDataBase/ECNU-23a                   *
********************************************************************************


  Components of energy : 

--------------------------------------------------------------------------------
  Interatomic potentials     =        3535.90915209 eV    
  Three-body potentials      =           1.23125825 eV    
  Monopole - monopole (real) =      -14162.92433197 eV    
  Monopole - monopole (recip)=       -3635.29516559 eV    
  Monopole - monopole (total)=      -17798.21949757 eV    
--------------------------------------------------------------------------------
  Total lattice energy       =      -14261.07908723 eV    
--------------------------------------------------------------------------------
  Total lattice energy       =        -1375976.1314 kJ/(mole unit cells)
--------------------------------------------------------------------------------


  Number of variables =     1683

  Maximum number of calculations  =           500
  Maximum Hessian update interval =            10
  Maximum step size               =   0.100000000
  Maximum parameter tolerance     =   0.000010000
  Maximum function  tolerance     =   0.000010000
  Maximum gradient  tolerance     =   0.001000000
  Maximum gradient  component     =   0.010000000

  Cell parameters to be optimised using strains

  Newton-Raphson optimiser to be used

  BFGS hessian update to be used

  Lower half triangular hessian to be used

  Minimiser to switch to RFO
  When gradient norm is less than     0.080000

  Switch max step size to       0.30000000 when gnorm is less than     0.005000

  Dumpfile to be written after every cycle

  Start of bulk optimisation :

  Cycle:      0 Energy:    -14261.079087  Gnorm:      2.773187  CPU:    2.584
  ** Hessian calculated **
  Cycle:      1 Energy:    -14384.085840  Gnorm:      0.765196  CPU:    7.126
  ** Hessian calculated **
  Cycle:      2 Energy:    -14396.552300  Gnorm:      0.383174  CPU:   13.742
  ** Hessian calculated **
  Cycle:      3 Energy:    -14399.629201  Gnorm:      0.190831  CPU:   19.234
  Cycle:      4 Energy:    -14400.387174  Gnorm:      0.094890  CPU:   21.700
  Cycle:      5 Energy:    -14400.573925  Gnorm:      0.047312  CPU:   24.156
  ** Hessian has required structure
  Cycle:      6 Energy:    -14400.573936  Gnorm:      0.047367  CPU:   33.583
  ** Hessian has required structure
  ** Hessian has required structure
  Cycle:      7 Energy:    -14400.620580  Gnorm:      0.023678  CPU:   53.233
  ** Hessian has required structure
  Cycle:      8 Energy:    -14400.632313  Gnorm:      0.011834  CPU:   63.909
  ** Hessian has required structure
  Cycle:      9 Energy:    -14400.634755  Gnorm:      0.007097  CPU:   73.995
  ** Hessian has required structure
  Cycle:     10 Energy:    -14400.635825  Gnorm:      0.003546  CPU:   84.359
  ** Hessian has required structure
  Cycle:     11 Energy:    -14400.636151  Gnorm:      0.000413  CPU:   94.787
  ** Hessian has required structure


  **** Optimisation achieved ****


  Final energy =  -14400.63615593 eV      
  Final Gnorm  =       0.00003955

  Components of energy : 

--------------------------------------------------------------------------------
  Interatomic potentials     =        3912.75089931 eV    
  Three-body potentials      =           1.93759792 eV    
  Monopole - monopole (real) =      -13165.38451846 eV    
  Monopole - monopole (recip)=       -5149.94013470 eV    
  Monopole - monopole (total)=      -18315.32465316 eV    
--------------------------------------------------------------------------------
  Total lattice energy       =      -14400.63615593 eV    
--------------------------------------------------------------------------------
  Total lattice energy       =        -1389441.2552 kJ/(mole unit cells)
--------------------------------------------------------------------------------

  Final fractional coordinates of atoms :

--------------------------------------------------------------------------------
   No.  Atomic        x           y          z          Radius
        Label       (Frac)      (Frac)     (Frac)       (Angs) 
--------------------------------------------------------------------------------
     1  O     c     0.759006    0.983990    0.069469    0.000000
     2  O     c     0.239494    0.982500    0.076584    0.000000
     3  O     c     0.273325    0.006022    0.451607    0.000000
     4  O     c     0.721129    0.002824    0.445310    0.000000
     5  O     c     0.258254    0.480686    0.076143    0.000000
     6  O     c     0.736565    0.520955    0.067790    0.000000
     7  O     c     0.771300    0.490068    0.443589    0.000000
     8  O     c     0.223654    0.506107    0.451359    0.000000
     9  O     c     0.676729    0.608459    0.249437    0.000000
    10  O     c     0.327775    0.399734    0.236898    0.000000
    11  O     c     0.312290    0.591794    0.234265    0.000000
    12  O     c     0.677217    0.420397    0.213553    0.000000
    13  O     c     0.179752    0.108619    0.226452    0.000000
    14  O     c     0.831006    0.907818    0.231221    0.000000
    15  O     c     0.816327    0.100168    0.239685    0.000000
    16  O     c     0.173426    0.918187    0.247542    0.000000
    17  O     c     0.648667    0.923021    0.107334    0.000000
    18  O     c     0.323141    0.108484    0.110949    0.000000
    19  O     c     0.316960    0.893566    0.356867    0.000000
    20  O     c     0.680379    0.121008    0.348736    0.000000
    21  O     c     0.144292    0.432533    0.108171    0.000000
    22  O     c     0.849253    0.579437    0.097800    0.000000
    23  O     c     0.850863    0.417637    0.362194    0.000000
    24  O     c     0.173870    0.603711    0.351351    0.000000
    25  O     c     0.558461    0.803471    0.125835    0.000000
    26  O     c     0.442948    0.136775    0.104386    0.000000
    27  O     c     0.433903    0.840163    0.352553    0.000000
    28  O     c     0.560576    0.151651    0.339120    0.000000
    29  O     c     0.046054    0.334903    0.097583    0.000000
    30  O     c     0.946178    0.683021    0.122535    0.000000
    31  O     c     0.944420    0.308329    0.333643    0.000000
    32  O     c     0.055717    0.643793    0.353587    0.000000
    33  O     c     0.640897    0.769185    0.029708    0.000000
    34  O     c     0.366806    0.232956    0.024811    0.000000
    35  O     c     0.347703    0.724109    0.405611    0.000000
    36  O     c     0.636170    0.281178    0.398867    0.000000
    37  O     c     0.143467    0.282873    0.025688    0.000000
    38  O     c     0.867986    0.739199    0.027406    0.000000
    39  O     c     0.847649    0.229553    0.395846    0.000000
    40  O     c     0.137979    0.765630    0.408238    0.000000
    41  O     c     0.369188    0.270985    0.154094    0.000000
    42  O     c     0.671638    0.741575    0.152798    0.000000
    43  O     c     0.633588    0.261563    0.271437    0.000000
    44  O     c     0.356484    0.755873    0.276432    0.000000
    45  O     c     0.835773    0.758309    0.149319    0.000000
    46  O     c     0.139020    0.248827    0.155074    0.000000
    47  O     c     0.128036    0.747346    0.279616    0.000000
    48  O     c     0.840977    0.284644    0.269925    0.000000
    49  O     c     0.493238    0.849391    0.234538    0.000000
    50  O     c     0.505515    0.125444    0.220045    0.000000
    51  O     c     0.998039    0.353476    0.219007    0.000000
    52  O     c     0.999800    0.627335    0.235324    0.000000
    53  O     c     0.275981    0.992985    0.202061    0.000000
    54  O     c     0.725281    0.986696    0.196113    0.000000
    55  O     c     0.758563    0.981487    0.322086    0.000000
    56  O     c     0.240239    0.031792    0.325748    0.000000
    57  O     c     0.773639    0.533561    0.193353    0.000000
    58  O     c     0.220720    0.477201    0.201527    0.000000
    59  O     c     0.258851    0.478130    0.326949    0.000000
    60  O     c     0.741433    0.472669    0.316000    0.000000
    61  O     c     0.321223    0.597437    0.496731    0.000000
    62  O     c     0.670247    0.408056    0.488251    0.000000
    63  O     c     0.674733    0.602595    0.472488    0.000000
    64  O     c     0.325074    0.404144    0.481550    0.000000
    65  O     c     0.818141    0.101078    0.485187    0.000000
    66  O     c     0.172400    0.907190    0.483149    0.000000
    67  O     c     0.176183    0.101398    0.496427    0.000000
    68  O     c     0.825410    0.907661    0.476542    0.000000
    69  O     c     0.350332    0.920966    0.115437    0.000000
    70  O     c     0.678027    0.110042    0.111900    0.000000
    71  O     c     0.644196    0.938663    0.356411    0.000000
    72  O     c     0.351754    0.077950    0.368778    0.000000
    73  O     c     0.815736    0.396021    0.115999    0.000000
    74  O     c     0.181174    0.614571    0.120808    0.000000
    75  O     c     0.149585    0.416718    0.371799    0.000000
    76  O     c     0.819903    0.603648    0.351041    0.000000
    77  O     c     0.442545    0.804938    0.119527    0.000000
    78  O     c     0.558955    0.139330    0.102254    0.000000
    79  O     c     0.549051    0.831220    0.351761    0.000000
    80  O     c     0.445163    0.179450    0.328516    0.000000
    81  O     c     0.931887    0.342930    0.107513    0.000000
    82  O     c     0.062681    0.657484    0.123985    0.000000
    83  O     c     0.060781    0.305595    0.327636    0.000000
    84  O     c     0.939647    0.633591    0.352627    0.000000
    85  O     c     0.330775    0.734579    0.150405    0.000000
    86  O     c     0.634773    0.280429    0.143730    0.000000
    87  O     c     0.639631    0.788970    0.273935    0.000000
    88  O     c     0.336872    0.211667    0.275734    0.000000
    89  O     c     0.844664    0.220028    0.146665    0.000000
    90  O     c     0.148175    0.789225    0.155987    0.000000
    91  O     c     0.172633    0.286453    0.280524    0.000000
    92  O     c     0.871669    0.736250    0.273663    0.000000
    93  O     c     0.634534    0.226570    0.019520    0.000000
    94  O     c     0.355681    0.777567    0.028353    0.000000
    95  O     c     0.355609    0.266523    0.398880    0.000000
    96  O     c     0.654042    0.755556    0.401675    0.000000
    97  O     c     0.134011    0.736533    0.033065    0.000000
    98  O     c     0.852676    0.277514    0.020949    0.000000
    99  O     c     0.858013    0.764414    0.402255    0.000000
   100  O     c     0.150160    0.228052    0.402476    0.000000
   101  O     c     0.501963    0.976024    0.134683    0.000000
   102  O     c     0.491728    0.998764    0.318460    0.000000
   103  O     c     0.992375    0.503132    0.134396    0.000000
   104  O     c     0.003761    0.477736    0.319814    0.000000
   105  O     c     0.743776    0.255863    0.463379    0.000000
   106  O     c     0.244572    0.749192    0.476649    0.000000
   107  O     c     0.253404    0.248572    0.472141    0.000000
   108  O     c     0.754097    0.750571    0.477526    0.000000
   109  O     c     0.253726    0.258167    0.189215    0.000000
   110  O     c     0.754911    0.758861    0.247733    0.000000
   111  O     c     0.738810    0.247577    0.209226    0.000000
   112  O     c     0.241861    0.754380    0.239441    0.000000
   113  Si    c     0.712931    0.504612    0.492550    0.000000
   114  Si    c     0.282320    0.497180    0.000773    0.000000
   115  Si    c     0.215018    0.999789    0.001332    0.000000
   116  Si    c     0.781084    0.999776    0.493450    0.000000
   117  Si    c     0.717103    0.508772    0.243568    0.000000
   118  Si    c     0.279817    0.488904    0.250082    0.000000
   119  Si    c     0.217480    0.012640    0.250263    0.000000
   120  Si    c     0.782883    0.995888    0.246630    0.000000
   121  Si    c     0.682286    0.720898    0.471836    0.000000
   122  Si    c     0.323758    0.286598    0.470165    0.000000
   123  Si    c     0.315455    0.712753    0.477677    0.000000
   124  Si    c     0.673074    0.292852    0.468085    0.000000
   125  Si    c     0.182087    0.215750    0.474831    0.000000
   126  Si    c     0.824385    0.789149    0.471608    0.000000
   127  Si    c     0.813875    0.216644    0.467047    0.000000
   128  Si    c     0.174327    0.788716    0.475970    0.000000
   129  Si    c     0.629510    0.808974    0.104106    0.000000
   130  Si    c     0.376586    0.186677    0.097869    0.000000
   131  Si    c     0.364227    0.803747    0.348679    0.000000
   132  Si    c     0.626828    0.202611    0.339819    0.000000
   133  Si    c     0.119477    0.322994    0.096085    0.000000
   134  Si    c     0.875361    0.689920    0.099893    0.000000
   135  Si    c     0.870917    0.308129    0.341049    0.000000
   136  Si    c     0.123349    0.689768    0.349364    0.000000
   137  Si    c     0.308754    0.709246    0.225043    0.000000
   138  Si    c     0.673272    0.302166    0.210560    0.000000
   139  Si    c     0.686383    0.723700    0.230822    0.000000
   140  Si    c     0.321799    0.285853    0.215162    0.000000
   141  Si    c     0.808896    0.213450    0.217232    0.000000
   142  Si    c     0.174675    0.802529    0.230463    0.000000
   143  Si    c     0.186431    0.225355    0.214030    0.000000
   144  Si    c     0.823103    0.789674    0.224953    0.000000
   145  Si    c     0.370112    0.808267    0.104065    0.000000
   146  Si    c     0.625056    0.188482    0.094519    0.000000
   147  Si    c     0.622669    0.826807    0.347549    0.000000
   148  Si    c     0.372698    0.185167    0.343558    0.000000
   149  Si    c     0.862743    0.309327    0.097103    0.000000
   150  Si    c     0.129749    0.698409    0.108612    0.000000
   151  Si    c     0.132631    0.308416    0.345857    0.000000
   152  Si    c     0.873014    0.684196    0.346000    0.000000
   153  Si    c     0.499077    0.861099    0.154646    0.000000
   154  Si    c     0.502166    0.093593    0.142487    0.000000
   155  Si    c     0.492110    0.881017    0.312110    0.000000
   156  Si    c     0.500925    0.112693    0.300302    0.000000
   157  Si    c     0.992357    0.385273    0.141493    0.000000
   158  Si    c     0.000260    0.616402    0.155177    0.000000
   159  Si    c     0.001539    0.363713    0.299107    0.000000
   160  Si    c     0.999680    0.595422    0.313131    0.000000
   161  Si    c     0.702564    0.000062    0.120194    0.000000
   162  Si    c     0.297285    0.001246    0.125155    0.000000
   163  Si    c     0.296007    0.002435    0.375326    0.000000
   164  Si    c     0.700610    0.010778    0.368070    0.000000
   165  Si    c     0.201079    0.501255    0.125460    0.000000
   166  Si    c     0.793986    0.508033    0.117681    0.000000
   167  Si    c     0.796057    0.495952    0.368157    0.000000
   168  Si    c     0.201021    0.500202    0.375054    0.000000
   169  O     c     0.759007    0.983988    0.569469    0.000000
   170  O     c     0.239495    0.982501    0.576584    0.000000
   171  O     c     0.273325    0.006023    0.951607    0.000000
   172  O     c     0.721129    0.002824    0.945310    0.000000
   173  O     c     0.258254    0.480686    0.576144    0.000000
   174  O     c     0.736564    0.520954    0.567790    0.000000
   175  O     c     0.771300    0.490067    0.943589    0.000000
   176  O     c     0.223654    0.506109    0.951359    0.000000
   177  O     c     0.676729    0.608458    0.749437    0.000000
   178  O     c     0.327775    0.399734    0.736898    0.000000
   179  O     c     0.312290    0.591794    0.734265    0.000000
   180  O     c     0.677217    0.420396    0.713553    0.000000
   181  O     c     0.179752    0.108619    0.726452    0.000000
   182  O     c     0.831006    0.907818    0.731221    0.000000
   183  O     c     0.816328    0.100168    0.739685    0.000000
   184  O     c     0.173426    0.918187    0.747542    0.000000
   185  O     c     0.648667    0.923021    0.607335    0.000000
   186  O     c     0.323142    0.108484    0.610950    0.000000
   187  O     c     0.316959    0.893566    0.856868    0.000000
   188  O     c     0.680379    0.121008    0.848736    0.000000
   189  O     c     0.144292    0.432533    0.608170    0.000000
   190  O     c     0.849252    0.579438    0.597800    0.000000
   191  O     c     0.850864    0.417637    0.862193    0.000000
   192  O     c     0.173870    0.603710    0.851350    0.000000
   193  O     c     0.558461    0.803471    0.625834    0.000000
   194  O     c     0.442949    0.136776    0.604386    0.000000
   195  O     c     0.433903    0.840163    0.852553    0.000000
   196  O     c     0.560576    0.151651    0.839120    0.000000
   197  O     c     0.046054    0.334903    0.597583    0.000000
   198  O     c     0.946178    0.683021    0.622535    0.000000
   199  O     c     0.944420    0.308330    0.833643    0.000000
   200  O     c     0.055717    0.643793    0.853587    0.000000
   201  O     c     0.640897    0.769186    0.529708    0.000000
   202  O     c     0.366806    0.232955    0.524811    0.000000
   203  O     c     0.347703    0.724109    0.905611    0.000000
   204  O     c     0.636170    0.281178    0.898867    0.000000
   205  O     c     0.143468    0.282873    0.525688    0.000000
   206  O     c     0.867986    0.739200    0.527406    0.000000
   207  O     c     0.847650    0.229553    0.895846    0.000000
   208  O     c     0.137979    0.765630    0.908238    0.000000
   209  O     c     0.369188    0.270986    0.654094    0.000000
   210  O     c     0.671638    0.741574    0.652798    0.000000
   211  O     c     0.633588    0.261563    0.771438    0.000000
   212  O     c     0.356484    0.755874    0.776432    0.000000
   213  O     c     0.835773    0.758309    0.649319    0.000000
   214  O     c     0.139020    0.248827    0.655074    0.000000
   215  O     c     0.128036    0.747346    0.779616    0.000000
   216  O     c     0.840977    0.284644    0.769925    0.000000
   217  O     c     0.493238    0.849391    0.734538    0.000000
   218  O     c     0.505515    0.125443    0.720045    0.000000
   219  O     c     0.998039    0.353476    0.719007    0.000000
   220  O     c     0.999800    0.627335    0.735324    0.000000
   221  O     c     0.275981    0.992984    0.702061    0.000000
   222  O     c     0.725281    0.986699    0.696113    0.000000
   223  O     c     0.758563    0.981487    0.822086    0.000000
   224  O     c     0.240239    0.031792    0.825748    0.000000
   225  O     c     0.773639    0.533561    0.693353    0.000000
   226  O     c     0.220720    0.477201    0.701527    0.000000
   227  O     c     0.258851    0.478130    0.826949    0.000000
   228  O     c     0.741433    0.472669    0.816000    0.000000
   229  O     c     0.321223    0.597437    0.996731    0.000000
   230  O     c     0.670247    0.408055    0.988252    0.000000
   231  O     c     0.674733    0.602594    0.972488    0.000000
   232  O     c     0.325074    0.404144    0.981550    0.000000
   233  O     c     0.818141    0.101078    0.985186    0.000000
   234  O     c     0.172399    0.907190    0.983149    0.000000
   235  O     c     0.176183    0.101398    0.996427    0.000000
   236  O     c     0.825410    0.907660    0.976542    0.000000
   237  O     c     0.350332    0.920966    0.615436    0.000000
   238  O     c     0.678028    0.110042    0.611898    0.000000
   239  O     c     0.644196    0.938663    0.856411    0.000000
   240  O     c     0.351754    0.077950    0.868778    0.000000
   241  O     c     0.815737    0.396021    0.616000    0.000000
   242  O     c     0.181174    0.614571    0.620809    0.000000
   243  O     c     0.149586    0.416718    0.871800    0.000000
   244  O     c     0.819902    0.603648    0.851041    0.000000
   245  O     c     0.442545    0.804938    0.619528    0.000000
   246  O     c     0.558956    0.139328    0.602255    0.000000
   247  O     c     0.549051    0.831220    0.851762    0.000000
   248  O     c     0.445163    0.179450    0.828516    0.000000
   249  O     c     0.931887    0.342930    0.607513    0.000000
   250  O     c     0.062681    0.657484    0.623985    0.000000
   251  O     c     0.060781    0.305595    0.827636    0.000000
   252  O     c     0.939647    0.633591    0.852627    0.000000
   253  O     c     0.330775    0.734579    0.650405    0.000000
   254  O     c     0.634774    0.280428    0.643730    0.000000
   255  O     c     0.639630    0.788969    0.773935    0.000000
   256  O     c     0.336873    0.211667    0.775734    0.000000
   257  O     c     0.844664    0.220027    0.646664    0.000000
   258  O     c     0.148174    0.789225    0.655987    0.000000
   259  O     c     0.172633    0.286453    0.780524    0.000000
   260  O     c     0.871669    0.736250    0.773663    0.000000
   261  O     c     0.634533    0.226572    0.519520    0.000000
   262  O     c     0.355681    0.777566    0.528353    0.000000
   263  O     c     0.355609    0.266523    0.898880    0.000000
   264  O     c     0.654042    0.755556    0.901675    0.000000
   265  O     c     0.134011    0.736532    0.533065    0.000000
   266  O     c     0.852675    0.277514    0.520949    0.000000
   267  O     c     0.858013    0.764414    0.902255    0.000000
   268  O     c     0.150160    0.228052    0.902476    0.000000
   269  O     c     0.501962    0.976024    0.634683    0.000000
   270  O     c     0.491728    0.998764    0.818460    0.000000
   271  O     c     0.992375    0.503132    0.634395    0.000000
   272  O     c     0.003761    0.477736    0.819814    0.000000
   273  O     c     0.743776    0.255863    0.963379    0.000000
   274  O     c     0.244572    0.749192    0.976649    0.000000
   275  O     c     0.253404    0.248572    0.972141    0.000000
   276  O     c     0.754097    0.750570    0.977526    0.000000
   277  O     c     0.253726    0.258168    0.689215    0.000000
   278  O     c     0.754911    0.758861    0.747733    0.000000
   279  O     c     0.738810    0.247576    0.709226    0.000000
   280  O     c     0.241861    0.754380    0.739441    0.000000
   281  Si    c     0.712931    0.504611    0.992550    0.000000
   282  Si    c     0.282320    0.497179    0.500773    0.000000
   283  Si    c     0.215018    0.999789    0.501332    0.000000
   284  Si    c     0.781084    0.999776    0.993450    0.000000
   285  Si    c     0.717104    0.508771    0.743568    0.000000
   286  Si    c     0.279817    0.488904    0.750082    0.000000
   287  Si    c     0.217480    0.012640    0.750263    0.000000
   288  Si    c     0.782883    0.995888    0.746630    0.000000
   289  Si    c     0.682286    0.720898    0.971836    0.000000
   290  Si    c     0.323758    0.286598    0.970165    0.000000
   291  Si    c     0.315455    0.712753    0.977677    0.000000
   292  Si    c     0.673074    0.292851    0.968085    0.000000
   293  Si    c     0.182087    0.215750    0.974831    0.000000
   294  Si    c     0.824385    0.789149    0.971608    0.000000
   295  Si    c     0.813876    0.216644    0.967046    0.000000
   296  Si    c     0.174327    0.788715    0.975970    0.000000
   297  Si    c     0.629510    0.808974    0.604106    0.000000
   298  Si    c     0.376587    0.186677    0.597869    0.000000
   299  Si    c     0.364227    0.803747    0.848679    0.000000
   300  Si    c     0.626828    0.202611    0.839819    0.000000
   301  Si    c     0.119478    0.322994    0.596085    0.000000
   302  Si    c     0.875360    0.689920    0.599893    0.000000
   303  Si    c     0.870917    0.308129    0.841049    0.000000
   304  Si    c     0.123349    0.689768    0.849364    0.000000
   305  Si    c     0.308754    0.709246    0.725043    0.000000
   306  Si    c     0.673272    0.302166    0.710560    0.000000
   307  Si    c     0.686382    0.723700    0.730822    0.000000
   308  Si    c     0.321799    0.285854    0.715162    0.000000
   309  Si    c     0.808896    0.213450    0.717232    0.000000
   310  Si    c     0.174675    0.802529    0.730463    0.000000
   311  Si    c     0.186431    0.225356    0.714030    0.000000
   312  Si    c     0.823103    0.789674    0.724953    0.000000
   313  Si    c     0.370112    0.808266    0.604065    0.000000
   314  Si    c     0.625056    0.188482    0.594519    0.000000
   315  Si    c     0.622669    0.826807    0.847549    0.000000
   316  Si    c     0.372698    0.185167    0.843558    0.000000
   317  Si    c     0.862743    0.309327    0.597103    0.000000
   318  Si    c     0.129749    0.698409    0.608612    0.000000
   319  Si    c     0.132631    0.308416    0.845857    0.000000
   320  Si    c     0.873014    0.684196    0.846001    0.000000
   321  Si    c     0.499077    0.861099    0.654646    0.000000
   322  Si    c     0.502166    0.093593    0.642487    0.000000
   323  Si    c     0.492111    0.881017    0.812110    0.000000
   324  Si    c     0.500925    0.112693    0.800302    0.000000
   325  Si    c     0.992357    0.385273    0.641492    0.000000
   326  Si    c     0.000260    0.616402    0.655176    0.000000
   327  Si    c     0.001539    0.363713    0.799107    0.000000
   328  Si    c     0.999680    0.595422    0.813131    0.000000
   329  Si    c     0.702564    0.000062    0.620194    0.000000
   330  Si    c     0.297285    0.001246    0.625155    0.000000
   331  Si    c     0.296007    0.002435    0.875326    0.000000
   332  Si    c     0.700610    0.010778    0.868070    0.000000
   333  Si    c     0.201080    0.501255    0.625460    0.000000
   334  Si    c     0.793986    0.508033    0.617681    0.000000
   335  Si    c     0.796057    0.495952    0.868157    0.000000
   336  Si    c     0.201021    0.500203    0.875054    0.000000
   337  O     s     0.755192    0.987495    0.066713    0.000000
   338  O     s     0.243134    0.986414    0.073703    0.000000
   339  O     s     0.269559    0.004964    0.448477    0.000000
   340  O     s     0.725216    0.003391    0.441972    0.000000
   341  O     s     0.254656    0.484701    0.073311    0.000000
   342  O     s     0.740329    0.517738    0.065014    0.000000
   343  O     s     0.767777    0.492270    0.440439    0.000000
   344  O     s     0.227417    0.504541    0.448191    0.000000
   345  O     s     0.682197    0.609783    0.246826    0.000000
   346  O     s     0.321918    0.397041    0.236007    0.000000
   347  O     s     0.308117    0.593220    0.235026    0.000000
   348  O     s     0.681327    0.417216    0.216601    0.000000
   349  O     s     0.184764    0.110693    0.227795    0.000000
   350  O     s     0.824914    0.904811    0.232221    0.000000
   351  O     s     0.811666    0.100999    0.237986    0.000000
   352  O     s     0.178515    0.915875    0.245956    0.000000
   353  O     s     0.652693    0.919194    0.108455    0.000000
   354  O     s     0.326142    0.104709    0.111162    0.000000
   355  O     s     0.319876    0.896110    0.358121    0.000000
   356  O     s     0.676806    0.117526    0.349943    0.000000
   357  O     s     0.148133    0.428332    0.108859    0.000000
   358  O     s     0.845839    0.583495    0.100304    0.000000
   359  O     s     0.846774    0.414408    0.360525    0.000000
   360  O     s     0.171285    0.601388    0.353911    0.000000
   361  O     s     0.559914    0.810445    0.126583    0.000000
   362  O     s     0.441924    0.137675    0.107996    0.000000
   363  O     s     0.432468    0.840633    0.347509    0.000000
   364  O     s     0.561419    0.153048    0.334816    0.000000
   365  O     s     0.048475    0.339106    0.102238    0.000000
   366  O     s     0.944154    0.676476    0.123599    0.000000
   367  O     s     0.942436    0.314432    0.330634    0.000000
   368  O     s     0.057158    0.643596    0.348601    0.000000
   369  O     s     0.644275    0.768290    0.031630    0.000000
   370  O     s     0.363085    0.233643    0.027059    0.000000
   371  O     s     0.345935    0.731749    0.407209    0.000000
   372  O     s     0.639250    0.273747    0.400006    0.000000
[...]
    308 Si    c       0.002635      0.001421      0.000577      0.000000
    309 Si    c       0.002764     -0.001307      0.000387      0.000000
    310 Si    c      -0.002746      0.001327      0.000511      0.000000
    311 Si    c      -0.002923     -0.001640      0.000211      0.000000
    312 Si    c       0.002680      0.001487      0.000409      0.000000
    313 Si    c       0.003237     -0.001453     -0.000954      0.000000
    314 Si    c      -0.003468      0.000882     -0.000972      0.000000
    315 Si    c      -0.002867     -0.001496      0.001601      0.000000
    316 Si    c       0.003500      0.001258      0.001241      0.000000
    317 Si    c       0.003576     -0.000834     -0.001331      0.000000
    318 Si    c      -0.003881      0.000788     -0.001088      0.000000
    319 Si    c      -0.003873     -0.001318      0.001365      0.000000
    320 Si    c       0.003125      0.001016      0.001604      0.000000
    321 Si    c      -0.000039     -0.002254     -0.002917      0.000000
    322 Si    c       0.000009      0.002235     -0.003049      0.000000
    323 Si    c       0.000097     -0.002164      0.002716      0.000000
    324 Si    c       0.000194      0.002399      0.002850      0.000000
    325 Si    c      -0.000245     -0.002218     -0.003074      0.000000
    326 Si    c       0.000389      0.002484     -0.003045      0.000000
    327 Si    c      -0.000060     -0.002294      0.002759      0.000000
    328 Si    c       0.000011      0.002386      0.002814      0.000000
    329 Si    c       0.000810      0.000021     -0.000922      0.000000
    330 Si    c      -0.000868      0.000206     -0.001306      0.000000
    331 Si    c      -0.000198     -0.000076      0.001155      0.000000
    332 Si    c       0.000379      0.000235      0.001167      0.000000
    333 Si    c       0.000799      0.000227     -0.001271      0.000000
    334 Si    c      -0.000825     -0.000180     -0.001205      0.000000
    335 Si    c      -0.000198      0.000158      0.001329      0.000000
    336 Si    c       0.000458      0.000200      0.000974      0.000000
    337 O     s       0.003453     -0.002304      0.002493      0.000000
    338 O     s      -0.000574     -0.001486      0.001770      0.000000
    339 O     s       0.003580      0.000313      0.003340      0.000000
    340 O     s      -0.003793     -0.000304      0.003316      0.000000
    341 O     s       0.000386     -0.001325      0.001800      0.000000
    342 O     s      -0.000463      0.000999      0.001792      0.000000
    343 O     s       0.003372     -0.000692      0.002988      0.000000
    344 O     s      -0.003574      0.000328      0.003197      0.000000
    345 O     s      -0.000300      0.000412      0.001726      0.000000
    346 O     s       0.000795     -0.000167      0.000496      0.000000
    347 O     s      -0.001364      0.000263     -0.000776      0.000000
    348 O     s       0.001299      0.000252     -0.002225      0.000000
    349 O     s       0.000248     -0.000038     -0.000915      0.000000
    350 O     s       0.001007      0.000108     -0.000968      0.000000
    351 O     s      -0.000720      0.000671      0.001091      0.000000
    352 O     s       0.000381     -0.000215      0.000780      0.000000
    353 O     s      -0.002102      0.000899      0.000703      0.000000
    354 O     s      -0.003312      0.001659      0.000967      0.000000
    355 O     s      -0.003357     -0.000954     -0.002684      0.000000
    356 O     s       0.003800      0.001269     -0.002514      0.000000
    357 O     s      -0.001987      0.001203      0.000885      0.000000
    358 O     s       0.001470     -0.001311     -0.000076      0.000000
    359 O     s       0.001700      0.001343     -0.001161      0.000000
    360 O     s       0.003146      0.000882     -0.003504      0.000000
    361 O     s       0.000518     -0.000223      0.001885      0.000000
    362 O     s      -0.001366     -0.002042      0.000475      0.000000
    363 O     s      -0.000419      0.001821      0.001537      0.000000
    364 O     s       0.001449     -0.002648      0.000903      0.000000
    365 O     s      -0.000516      0.000454     -0.000810      0.000000
    366 O     s      -0.000178      0.000237      0.001599      0.000000
    367 O     s       0.000269      0.000104      0.000055      0.000000
    368 O     s       0.000739     -0.001763      0.001265      0.000000
    369 O     s       0.001574      0.001763     -0.000781      0.000000
    370 O     s      -0.001278     -0.001506     -0.001027      0.000000
    371 O     s      -0.002737     -0.001592     -0.001956      0.000000
    372 O     s       0.001832      0.001516     -0.001835      0.000000
    373 O     s       0.003135      0.002513     -0.000969      0.000000
    374 O     s      -0.001107     -0.001445     -0.000844      0.000000
    375 O     s      -0.003254     -0.001421     -0.002473      0.000000
    376 O     s       0.002271      0.000941     -0.001632      0.000000
    377 O     s       0.000504      0.000768      0.000115      0.000000
    378 O     s       0.005738      0.000113     -0.002134      0.000000
    379 O     s       0.000935     -0.001381     -0.001145      0.000000
    380 O     s       0.000568      0.002022     -0.002237      0.000000
    381 O     s      -0.006035     -0.000458     -0.001878      0.000000
    382 O     s       0.000224      0.000184      0.000212      0.000000
    383 O     s      -0.000270     -0.002074     -0.002425      0.000000
    384 O     s      -0.002921      0.003733     -0.001736      0.000000
    385 O     s      -0.000263      0.001709     -0.000070      0.000000
    386 O     s       0.000260     -0.001198      0.000139      0.000000
    387 O     s       0.000199      0.001740      0.000074      0.000000
    388 O     s      -0.000230     -0.001481     -0.000134      0.000000
    389 O     s       0.004844     -0.000863      0.003849      0.000000
    390 O     s      -0.004724     -0.001016      0.003943      0.000000
    391 O     s      -0.000263     -0.001692      0.001196      0.000000
    392 O     s       0.000271      0.001826      0.000769      0.000000
    393 O     s       0.004779      0.001431      0.003245      0.000000
    394 O     s      -0.005003     -0.001289      0.003624      0.000000
    395 O     s       0.000080     -0.001356      0.001162      0.000000
    396 O     s       0.000602     -0.001992      0.000463      0.000000
    397 O     s      -0.000433      0.000137      0.001077      0.000000
    398 O     s       0.000378     -0.000135      0.001026      0.000000
    399 O     s       0.000431     -0.000114     -0.001828      0.000000
    400 O     s      -0.000568      0.000036     -0.000840      0.000000
    401 O     s      -0.000745      0.000127      0.000737      0.000000
    402 O     s       0.000450      0.000205     -0.001046      0.000000
    403 O     s       0.000522      0.000316      0.001174      0.000000
    404 O     s      -0.000486      0.000133     -0.001205      0.000000
    405 O     s       0.001728      0.001129      0.001570      0.000000
    406 O     s       0.003548      0.001434      0.002003      0.000000
    407 O     s      -0.001813      0.001516     -0.002126      0.000000
    408 O     s       0.001582     -0.001248     -0.000790      0.000000
    409 O     s      -0.002795     -0.001243      0.002370      0.000000
    410 O     s       0.003325      0.001484      0.001516      0.000000
    411 O     s      -0.001579      0.001250     -0.000246      0.000000
    412 O     s      -0.003537      0.001186     -0.002684      0.000000
    413 O     s       0.000209     -0.000136      0.000720      0.000000
    414 O     s       0.000381     -0.001568      0.000112      0.000000
    415 O     s      -0.000625      0.000158      0.001350      0.000000
    416 O     s       0.000126      0.000341     -0.001510      0.000000
    417 O     s      -0.000786      0.001629      0.000877      0.000000
    418 O     s       0.001487     -0.002298      0.001055      0.000000
    419 O     s       0.000039     -0.000039     -0.001349      0.000000
    420 O     s      -0.001238     -0.002507      0.001283      0.000000
    421 O     s      -0.004954      0.000053     -0.001950      0.000000
    422 O     s       0.000835      0.001374     -0.000405      0.000000
    423 O     s       0.000199      0.003253     -0.003015      0.000000
    424 O     s      -0.004882     -0.003421     -0.001181      0.000000
    425 O     s      -0.001678     -0.001487     -0.001102      0.000000
    426 O     s       0.003407      0.001227     -0.001805      0.000000
    427 O     s       0.005129      0.003223     -0.000469      0.000000
    428 O     s       0.001028     -0.002329     -0.002594      0.000000
    429 O     s       0.001745     -0.002174     -0.002050      0.000000
    430 O     s      -0.002050      0.002771     -0.001695      0.000000
    431 O     s      -0.003104      0.001302     -0.002307      0.000000
    432 O     s       0.004527     -0.000341     -0.002195      0.000000
    433 O     s       0.001002     -0.001927     -0.001305      0.000000
    434 O     s      -0.001640      0.002416     -0.001518      0.000000
    435 O     s      -0.002753      0.001048     -0.001929      0.000000
    436 O     s       0.003041     -0.001678     -0.002124      0.000000
    437 O     s       0.000131     -0.000008      0.002226      0.000000
    438 O     s      -0.000782     -0.000088     -0.002333      0.000000
    439 O     s      -0.000566     -0.000024      0.002042      0.000000
    440 O     s       0.000433      0.000127     -0.002168      0.000000
    441 O     s      -0.000011      0.000057     -0.000344      0.000000
    442 O     s      -0.000017     -0.000042      0.000159      0.000000
    443 O     s       0.000059     -0.000163      0.000166      0.000000
    444 O     s       0.000187     -0.000217      0.000837      0.000000
    445 O     s       0.000071      0.000118     -0.002631      0.000000
    446 O     s      -0.000112      0.000065      0.001985      0.000000
    447 O     s      -0.000567     -0.000668      0.000075      0.000000
    448 O     s      -0.000049     -0.000072      0.001238      0.000000
    449 O     s       0.000564     -0.001235      0.001667      0.000000
    450 O     s      -0.000531     -0.001469      0.001830      0.000000
    451 O     s       0.003576      0.000317      0.003334      0.000000
    452 O     s      -0.003801     -0.000287      0.003187      0.000000
    453 O     s       0.000384     -0.001331      0.001767      0.000000
    454 O     s      -0.000494      0.000985      0.001740      0.000000
    455 O     s       0.003373     -0.000689      0.002951      0.000000
    456 O     s      -0.003557      0.000334      0.003218      0.000000
    457 O     s      -0.000316      0.000419      0.001750      0.000000
    458 O     s       0.000793     -0.000168      0.000498      0.000000
    459 O     s      -0.001361      0.000266     -0.000781      0.000000
    460 O     s       0.001323      0.000208     -0.002245      0.000000
    461 O     s       0.000257     -0.000027     -0.000932      0.000000
    462 O     s       0.000954      0.000140     -0.000999      0.000000
    463 O     s      -0.000735      0.000636      0.001060      0.000000
    464 O     s       0.000380     -0.000207      0.000772      0.000000
    465 O     s      -0.001958      0.001139      0.000624      0.000000
    466 O     s      -0.003265      0.001642      0.000940      0.000000
    467 O     s      -0.003376     -0.000951     -0.002673      0.000000
    468 O     s       0.003814      0.001258     -0.002509      0.000000
    469 O     s      -0.001986      0.001196      0.000881      0.000000
    470 O     s       0.001480     -0.001291     -0.000095      0.000000
    471 O     s       0.001726      0.001327     -0.001184      0.000000
    472 O     s       0.003151      0.000898     -0.003527      0.000000
    473 O     s       0.000512     -0.000182      0.001857      0.000000
    474 O     s      -0.001284     -0.002068      0.000387      0.000000
    475 O     s      -0.000433      0.001820      0.001525      0.000000
    476 O     s       0.001418     -0.002642      0.000879      0.000000
    477 O     s      -0.000508      0.000454     -0.000810      0.000000
    478 O     s      -0.000191      0.000233      0.001586      0.000000
    479 O     s       0.000270      0.000101      0.000063      0.000000
    480 O     s       0.000720     -0.001755      0.001260      0.000000
    481 O     s       0.001559      0.001799     -0.000765      0.000000
    482 O     s      -0.001253     -0.001562     -0.001005      0.000000
    483 O     s      -0.002754     -0.001587     -0.001982      0.000000
    484 O     s       0.001835      0.001533     -0.001879      0.000000
    485 O     s       0.003127      0.002503     -0.000961      0.000000
    486 O     s      -0.001088     -0.001456     -0.000880      0.000000
    487 O     s      -0.003253     -0.001421     -0.002469      0.000000
    488 O     s       0.002275      0.000943     -0.001613      0.000000
    489 O     s       0.000486      0.000717      0.000066      0.000000
    490 O     s       0.005710      0.000102     -0.002149      0.000000
    491 O     s       0.000910     -0.001345     -0.001173      0.000000
    492 O     s       0.000561      0.002023     -0.002232      0.000000
    493 O     s      -0.006015     -0.000484     -0.001857      0.000000
    494 O     s       0.000225      0.000178      0.000231      0.000000
    495 O     s      -0.000281     -0.002067     -0.002439      0.000000
    496 O     s      -0.002963      0.003738     -0.001772      0.000000
    497 O     s      -0.000255      0.001725     -0.000113      0.000000
    498 O     s       0.000258     -0.001218     -0.000019      0.000000
    499 O     s       0.000202      0.001732      0.000069      0.000000
    500 O     s      -0.000223     -0.001479     -0.000124      0.000000
    501 O     s       0.004803     -0.000842      0.003777      0.000000
    502 O     s      -0.004755     -0.000947      0.003651      0.000000
    503 O     s      -0.000234     -0.001665      0.001157      0.000000
    504 O     s       0.000262      0.001816      0.000780      0.000000
    505 O     s       0.004786      0.001420      0.003261      0.000000
    506 O     s      -0.005007     -0.001287      0.003634      0.000000
    507 O     s       0.000107     -0.001382      0.001112      0.000000
    508 O     s       0.000579     -0.001995      0.000463      0.000000
    509 O     s      -0.000423      0.000139      0.001110      0.000000
    510 O     s       0.000362     -0.000098      0.001035      0.000000
    511 O     s       0.000430     -0.000101     -0.001854      0.000000
    512 O     s      -0.000564      0.000014     -0.000849      0.000000
    513 O     s      -0.000711      0.000136      0.000685      0.000000
    514 O     s       0.000441      0.000197     -0.001073      0.000000
    515 O     s       0.000562      0.000317      0.001186      0.000000
    516 O     s      -0.000482      0.000131     -0.001111      0.000000
    517 O     s       0.001716      0.001150      0.001500      0.000000
    518 O     s       0.003413      0.001486      0.001755      0.000000
    519 O     s      -0.001815      0.001504     -0.002144      0.000000
    520 O     s       0.001569     -0.001256     -0.000792      0.000000
    521 O     s      -0.002816     -0.001225      0.002386      0.000000
    522 O     s       0.003322      0.001476      0.001523      0.000000
    523 O     s      -0.001594      0.001206     -0.000264      0.000000
    524 O     s      -0.003529      0.001192     -0.002684      0.000000
    525 O     s       0.000232     -0.000116      0.000716      0.000000
    526 O     s       0.000690     -0.001693      0.000003      0.000000
    527 O     s      -0.000601      0.000166      0.001332      0.000000
    528 O     s       0.000130      0.000340     -0.001527      0.000000
    529 O     s      -0.000751      0.001617      0.000885      0.000000
    530 O     s       0.001478     -0.002302      0.001065      0.000000
    531 O     s       0.000046     -0.000046     -0.001371      0.000000
    532 O     s      -0.001243     -0.002512      0.001280      0.000000
    533 O     s      -0.004946      0.000053     -0.001973      0.000000
    534 O     s       0.000960      0.001136     -0.000679      0.000000
    535 O     s       0.000184      0.003232     -0.002997      0.000000
    536 O     s      -0.004901     -0.003417     -0.001193      0.000000
    537 O     s      -0.001710     -0.001498     -0.001062      0.000000
    538 O     s       0.003399      0.001232     -0.001787      0.000000
    539 O     s       0.005102      0.003209     -0.000499      0.000000
    540 O     s       0.001038     -0.002331     -0.002587      0.000000
    541 O     s       0.001785     -0.002324     -0.001870      0.000000
    542 O     s      -0.002035      0.002775     -0.001677      0.000000
    543 O     s      -0.003117      0.001304     -0.002314      0.000000
    544 O     s       0.004544     -0.000330     -0.002220      0.000000
    545 O     s       0.000994     -0.001924     -0.001307      0.000000
    546 O     s      -0.001632      0.002430     -0.001512      0.000000
    547 O     s      -0.002741      0.001060     -0.001925      0.000000
    548 O     s       0.003035     -0.001699     -0.002112      0.000000
    549 O     s       0.000155      0.000060      0.002132      0.000000
    550 O     s      -0.000785     -0.000090     -0.002360      0.000000
    551 O     s      -0.000557     -0.000025      0.002033      0.000000
    552 O     s       0.000417      0.000123     -0.002171      0.000000
    553 O     s       0.000063      0.000031     -0.000356      0.000000
    554 O     s      -0.000050     -0.000054      0.000150      0.000000
    555 O     s       0.000055     -0.000163      0.000177      0.000000
    556 O     s       0.000184     -0.000218      0.000858      0.000000
    557 O     s       0.000048      0.000106     -0.002612      0.000000
    558 O     s      -0.000067      0.000043      0.002016      0.000000
    559 O     s      -0.000602     -0.000631     -0.000011      0.000000
    560 O     s      -0.000043     -0.000072      0.001237      0.000000
--------------------------------------------------------------------------------
  Maximum abs         0.006035      0.003738      0.003943      0.000000
--------------------------------------------------------------------------------


  Time to end of optimisation =     106.2910 seconds


  Peak dynamic memory used =      61.02 MB 


  Timing analysis for GULP :

--------------------------------------------------------------------------------
  Task / Subroutine                                          Time (Seconds)
--------------------------------------------------------------------------------
  Calculation of reciprocal space energy and derivatives          4.0521
  Calculation of real space energy and derivatives               32.6785
  Calculation of three-body energy and derivatives                3.1871
  Calculation and manipulation of Hessian matrix                 63.5962
  Calculation of matrix inversion                                 2.6384
  Symmetry generation of equivalent positions                     0.0007
--------------------------------------------------------------------------------
  Total CPU time                                                106.2910
--------------------------------------------------------------------------------


  Dump file written as ReferenceDataBase/ECNU-23a.grs
  CIF file written as ReferenceDataBase/ECNU-23a_opt.cif


  Job Finished at 00:51.57  6th February   2024                               

