********************************************************************************
*                       GENERAL UTILITY LATTICE PROGRAM                        *
*                                 Julian Gale                                  *
*                       Curtin Institute for Computation                       *
*                    School of Molecular and Life Sciences                     *
*                    Curtin University, Western Australia                      *
********************************************************************************
* Version = 6.1.2 * Last modified =   3rd November 2022                        *
********************************************************************************
*  optimise     - perform optimisation run                                     *
*  conp         - constant pressure calculation                                *
*  nosymmetry   - turn off symmetry after initial structure generation         *
********************************************************************************

  Job Started  at 01:00.27  6th February   2024                               

  Number of CPUs =     1


  Total number of configurations input =      1

********************************************************************************
*  Input for Configuration =   1 : ReferenceDataBase/EWF                       *
********************************************************************************

  Formula = Si116O232                                                   

  Number of irreducible atoms/shells =     580


  Total number atoms/shells =     580

  Dimensionality = 3               :  Bulk   



  Cartesian lattice vectors (Angstroms) :

       11.048422    0.000000    0.000000
        0.004063   22.814721    0.000000
       -0.001816    0.017481   25.032169

  Cell parameters (Angstroms/Degrees):

  a =      11.0484    alpha =  89.9600
  b =      22.8147    beta  =  90.0042
  c =      25.0322    gamma =  89.9898

  Initial cell volume =        6309.775403 Angs**3

  Temperature of configuration =   0.00     K 

  Pressure of configuration =         0.000 GPa 

  Fractional coordinates of asymmetric unit :

--------------------------------------------------------------------------------
   No.  Atomic       x           y          z         Charge      Occupancy
        Label      (Frac)      (Frac)     (Frac)        (e)         (Frac)  
--------------------------------------------------------------------------------
      1 Si    c    0.361934    0.226162    0.193109     4.00000    1.000000    
      2 Si    c    0.363109 *  0.354201 *  0.157615 *   4.00000    1.000000    
      3 Si    c    0.268032 *  0.411982 *  0.056146 *   4.00000    1.000000    
      4 Si    c    0.264587 *  0.107299 *  0.160865 *   4.00000    1.000000    
      5 Si    c    0.152805 *  0.042769 *  0.066247 *   4.00000    1.000000    
      6 Si    c    0.268088 *  0.420590 *  0.254507 *   4.00000    1.000000    
      7 Si    c    0.144121 *  0.043906 *  0.253627 *   4.00000    1.000000    
      8 Si    c    0.506424 *  0.035727 *  0.177147 *   4.00000    1.000000    
      9 Si    c    0.006628 *  0.443148 *  0.071716 *   4.00000    1.000000    
     10 Si    c    0.000821 *  0.457182 *  0.271321 *   4.00000    1.000000    
     11 O     c    0.320298 *  0.288165 *  0.168934 *   0.86902    1.000000    
     12 O     c    0.338501 *  0.369046 *  0.095968 *   0.86902    1.000000    
     13 O     c    0.289620 *  0.400051 *  0.193919 *   0.86902    1.000000    
     14 O     c    0.283423 *  0.176979 *  0.163123 *   0.86902    1.000000    
     15 O     c    0.216149 *  0.091702 *  0.102397 *   0.86902    1.000000    
     16 O     c    0.165867 *  0.087765 *  0.204540 *   0.86902    1.000000    
     17 O     c    0.306560 *  0.395495 *  0.996207 *   0.86902    1.000000    
     18 O     c    0.210292 *  0.979874 *  0.080135 *   0.86902    1.000000    
     19 O     c    0.124051 *  0.402316 *  0.062877 *   0.86902    1.000000    
     20 O     c    0.390750 *  0.076489 *  0.173306 *   0.86902    1.000000    
     21 O     c    0.331339 *  0.224895 *  0.255540 *   0.86902    1.000000    
     22 O     c    0.195766 *  0.980767 *  0.236917 *   0.86902    1.000000    
     23 O     c    0.125521 *  0.422714 *  0.264897 *   0.86902    1.000000    
     24 O     c    0.503893 *  0.361375 *  0.171308 *   0.86902    1.000000    
     25 O     c    0.503276 *  0.214719 *  0.183011 *   0.86902    1.000000    
     26 O     c    0.517107 *  0.015672 *  0.238575 *   0.86902    1.000000    
     27 O     c    0.494990 *  0.978918 *  0.139888 *   0.86902    1.000000    
     28 O     c    0.011395 *  0.039771 *  0.078375 *   0.86902    1.000000    
     29 O     c    0.003158 *  0.040599 *  0.266710 *   0.86902    1.000000    
     30 O     c    0.507466 *  0.995621 *  0.036267 *   0.86902    1.000000    
     31 Si    c    0.652518 *  0.739928 *  0.693456 *   4.00000    1.000000    
     32 Si    c    0.650738 *  0.611887 *  0.657822 *   4.00000    1.000000    
     33 Si    c    0.745087 *  0.553802 *  0.556433 *   4.00000    1.000000    
     34 Si    c    0.750763 *  0.859145 *  0.662011 *   4.00000    1.000000    
     35 Si    c    0.863576 *  0.923328 *  0.567237 *   4.00000    1.000000    
     36 Si    c    0.745050 *  0.544665 *  0.754530 *   4.00000    1.000000    
     37 Si    c    0.874710 *  0.921066 *  0.754255 *   4.00000    1.000000    
     38 Si    c    0.510470 *  0.932008 *  0.678314 *   4.00000    1.000000    
     39 Si    c    0.006196 *  0.522213 *  0.571727 *   4.00000    1.000000    
     40 Si    c    0.012483 *  0.508514 *  0.771226 *   4.00000    1.000000    
     41 O     c    0.694474 *  0.677718 *  0.669715 *   0.86902    1.000000    
     42 O     c    0.675859 *  0.597264 *  0.596169 *   0.86902    1.000000    
     43 O     c    0.723286 *  0.565518 *  0.694025 *   0.86902    1.000000    
     44 O     c    0.729384 *  0.789563 *  0.663233 *   0.86902    1.000000    
     45 O     c    0.798366 *  0.875109 *  0.603513 *   0.86902    1.000000    
     46 O     c    0.851225 *  0.876868 *  0.705572 *   0.86902    1.000000    
     47 O     c    0.705891 *  0.570014 *  0.496506 *   0.86902    1.000000    
     48 O     c    0.807290 *  0.986627 *  0.580394 *   0.86902    1.000000    
     49 O     c    0.889234 *  0.563295 *  0.562659 *   0.86902    1.000000    
     50 O     c    0.627109 *  0.891641 *  0.675801 *   0.86902    1.000000    
     51 O     c    0.683429 *  0.742054 *  0.755889 *   0.86902    1.000000    
     52 O     c    0.807350 *  0.981503 *  0.740645 *   0.86902    1.000000    
     53 O     c    0.887656 *  0.543024 *  0.765093 *   0.86902    1.000000    
     54 O     c    0.509628 *  0.604884 *  0.670988 *   0.86902    1.000000    
     55 O     c    0.511191 *  0.750640 *  0.683230 *   0.86902    1.000000    
     56 O     c    0.498243 *  0.953874 *  0.739067 *   0.86902    1.000000    
     57 O     c    0.520203 *  0.988227 *  0.640069 *   0.86902    1.000000    
     58 O     c    0.004857 *  0.925451 *  0.579836 *   0.86902    1.000000    
     59 O     c    0.015528 *  0.932615 *  0.761395 *   0.86902    1.000000    
     60 O     c    0.508304 *  0.967313 *  0.537494 *   0.86902    1.000000    
     61 Si    c    0.367942 *  0.749332 *  0.816377 *   4.00000    1.000000    
     62 Si    c    0.366236 *  0.621306 *  0.850064 *   4.00000    1.000000    
     63 Si    c    0.264643 *  0.545489 *  0.942594 *   4.00000    1.000000    
     64 Si    c    0.266847 *  0.866003 *  0.856319 *   4.00000    1.000000    
     65 Si    c    0.148331 *  0.918289 *  0.951986 *   4.00000    1.000000    
     66 Si    c    0.263369 *  0.552578 *  0.754053 *   4.00000    1.000000    
     67 Si    c    0.157237 *  0.924732 *  0.753709 *   4.00000    1.000000    
     68 Si    c    0.508966 *  0.931282 *  0.877390 *   4.00000    1.000000    
     69 Si    c    0.003005 *  0.510959 *  0.965619 *   4.00000    1.000000    
     70 O     c    0.346082 *  0.691007 *  0.851096 *   0.86902    1.000000    
     71 O     c    0.289132 *  0.592542 *  0.896959 *   0.86902    1.000000    
     72 O     c    0.327299 *  0.599050 *  0.792109 *   0.86902    1.000000    
     73 O     c    0.277486 *  0.798604 *  0.838633 *   0.86902    1.000000    
     74 O     c    0.174199 *  0.870441 *  0.906149 *   0.86902    1.000000    
     75 O     c    0.218437 *  0.905993 *  0.808754 *   0.86902    1.000000    
     76 O     c    0.337595 *  0.562472 *  0.995992 *   0.86902    1.000000    
     77 O     c    0.208238 *  0.979367 *  0.932633 *   0.86902    1.000000    
     78 O     c    0.121586 *  0.548441 *  0.952643 *   0.86902    1.000000    
     79 O     c    0.396908 *  0.887957 *  0.874757 *   0.86902    1.000000    
     80 O     c    0.337286 *  0.737300 *  0.754809 *   0.86902    1.000000    
     81 O     c    0.214235 *  0.985991 *  0.734760 *   0.86902    1.000000    
     82 O     c    0.119152 *  0.555458 *  0.762487 *   0.86902    1.000000    
     83 O     c    0.504874 *  0.604110 *  0.859105 *   0.86902    1.000000    
     84 O     c    0.506953 *  0.769877 *  0.821590 *   0.86902    1.000000    
     85 O     c    0.493582 *  0.987237 *  0.838857 *   0.86902    1.000000    
     86 O     c    0.520555 *  0.953330 *  0.938184 *   0.86902    1.000000    
     87 O     c    0.006377 *  0.926948 *  0.961582 *   0.86902    1.000000    
     88 Si    c    0.644081 *  0.215902 *  0.317282 *   4.00000    1.000000    
     89 Si    c    0.645779 *  0.344358 *  0.350356 *   4.00000    1.000000    
     90 Si    c    0.748419 *  0.420244 *  0.442720 *   4.00000    1.000000    
     91 Si    c    0.748915 *  0.099508 *  0.356727 *   4.00000    1.000000    
     92 Si    c    0.867418 *  0.045524 *  0.451304 *   4.00000    1.000000    
     93 Si    c    0.749857 *  0.413488 *  0.254662 *   4.00000    1.000000    
     94 Si    c    0.861816 *  0.043012 *  0.254143 *   4.00000    1.000000    
     95 Si    c    0.506832 *  0.035128 *  0.380304 *   4.00000    1.000000    
     96 Si    c    0.010299 *  0.454516 *  0.465658 *   4.00000    1.000000    
     97 O     c    0.665482 *  0.274640 *  0.351344 *   0.86902    1.000000    
     98 O     c    0.722422 *  0.373019 *  0.397435 *   0.86902    1.000000    
     99 O     c    0.685380 *  0.366944 *  0.292554 *   0.86902    1.000000    
    100 O     c    0.734847 *  0.167269 *  0.340589 *   0.86902    1.000000    
    101 O     c    0.846173 *  0.093307 *  0.404726 *   0.86902    1.000000    
    102 O     c    0.790587 *  0.061188 *  0.306881 *   0.86902    1.000000    
    103 O     c    0.676527 *  0.403535 *  0.496434 *   0.86902    1.000000    
    104 O     c    0.805064 *  0.984748 *  0.432617 *   0.86902    1.000000    
    105 O     c    0.891730 *  0.417227 *  0.452150 *   0.86902    1.000000    
    106 O     c    0.622734 *  0.075774 *  0.377728 *   0.86902    1.000000    
    107 O     c    0.675536 *  0.227143 *  0.255649 *   0.86902    1.000000    
    108 O     c    0.813081 *  0.980074 *  0.235216 *   0.86902    1.000000    
    109 O     c    0.894058 *  0.410175 *  0.263046 *   0.86902    1.000000    
    110 O     c    0.506983 *  0.361376 *  0.359083 *   0.86902    1.000000    
    111 O     c    0.504956 *  0.195138 *  0.322138 *   0.86902    1.000000    
    112 O     c    0.512192 *  0.981743 *  0.338537 *   0.86902    1.000000    
    113 O     c    0.498401 *  0.009793 *  0.439922 *   0.86902    1.000000    
    114 O     c    0.008760 *  0.034920 *  0.461676 *   0.86902    1.000000    
    115 Si    c    0.646030 *  0.749086 *  0.817284 *   4.00000    1.000000    
    116 Si    c    0.644396 *  0.618985 *  0.849384 *   4.00000    1.000000    
    117 Si    c    0.743673 *  0.547072 *  0.944206 *   4.00000    1.000000    
    118 Si    c    0.753470 *  0.864681 *  0.855911 *   4.00000    1.000000    
    119 Si    c    0.863390 *  0.921011 *  0.953010 *   4.00000    1.000000    
    120 O     c    0.666808 *  0.688185 *  0.847610 *   0.86902    1.000000    
    121 O     c    0.719936 *  0.593832 *  0.898394 *   0.86902    1.000000    
    122 O     c    0.684093 *  0.591154 *  0.793616 *   0.86902    1.000000    
    123 O     c    0.733084 *  0.796122 *  0.845211 *   0.86902    1.000000    
    124 O     c    0.831475 *  0.871405 *  0.909890 *   0.86902    1.000000    
    125 O     c    0.827533 *  0.893751 *  0.808609 *   0.86902    1.000000    
    126 O     c    0.668888 *  0.563342 *  0.997186 *   0.86902    1.000000    
    127 O     c    0.809992 *  0.982995 *  0.932382 *   0.86902    1.000000    
    128 O     c    0.886258 *  0.550966 *  0.955678 *   0.86902    1.000000    
    129 O     c    0.626332 *  0.896499 *  0.860035 *   0.86902    1.000000    
    130 Si    c    0.366061 *  0.216365 *  0.317055 *   4.00000    1.000000    
    131 Si    c    0.367597 *  0.346111 *  0.349486 *   4.00000    1.000000    
    132 Si    c    0.269471 *  0.418220 *  0.444226 *   4.00000    1.000000    
    133 Si    c    0.263626 *  0.100263 *  0.355786 *   4.00000    1.000000    
    134 Si    c    0.150800 *  0.043118 *  0.451382 *   4.00000    1.000000    
    135 O     c    0.345422 *  0.276811 *  0.348132 *   0.86902    1.000000    
    136 O     c    0.292039 *  0.371377 *  0.398408 *   0.86902    1.000000    
    137 O     c    0.327687 *  0.373560 *  0.293543 *   0.86902    1.000000    
    138 O     c    0.275889 *  0.168976 *  0.342891 *   0.86902    1.000000    
    139 O     c    0.173743 *  0.091715 *  0.405937 *   0.86902    1.000000    
    140 O     c    0.213906 *  0.065363 *  0.305494 *   0.86902    1.000000    
    141 O     c    0.345101 *  0.402016 *  0.497038 *   0.86902    1.000000    
    142 O     c    0.208212 *  0.981549 *  0.431782 *   0.86902    1.000000    
    143 O     c    0.127085 *  0.414416 *  0.456189 *   0.86902    1.000000    
    144 O     c    0.393538 *  0.075717 *  0.370026 *   0.86902    1.000000    
    145 Si    c    0.644557 *  0.226193 *  0.193117 *   4.00000    1.000000    
    146 Si    c    0.644168 *  0.353603 *  0.156936 *   4.00000    1.000000    
    147 Si    c    0.742146 *  0.414291 *  0.057886 *   4.00000    1.000000    
    148 Si    c    0.747288 *  0.107589 *  0.159703 *   4.00000    1.000000    
    149 Si    c    0.869774 *  0.045217 *  0.067386 *   4.00000    1.000000    
    150 O     c    0.686062 *  0.287248 *  0.167100 *   0.86902    1.000000    
    151 O     c    0.669002 *  0.370262 *  0.095735 *   0.86902    1.000000    
    152 O     c    0.719830 *  0.398054 *  0.193638 *   0.86902    1.000000    
    153 O     c    0.721963 *  0.176470 *  0.163733 *   0.86902    1.000000    
    154 O     c    0.813442 *  0.095984 *  0.103763 *   0.86902    1.000000    
    155 O     c    0.836414 *  0.088925 *  0.207292 *   0.86902    1.000000    
    156 O     c    0.706776 *  0.398745 *  0.997530 *   0.86902    1.000000    
    157 O     c    0.807855 *  0.983631 *  0.082981 *   0.86902    1.000000    
    158 O     c    0.885550 *  0.404331 *  0.066094 *   0.86902    1.000000    
    159 O     c    0.622737 *  0.072608 *  0.161787 *   0.86902    1.000000    
    160 Si    c    0.369661 *  0.739447 *  0.692422 *   4.00000    1.000000    
    161 Si    c    0.369476 *  0.612406 *  0.656159 *   4.00000    1.000000    
    162 Si    c    0.271026 *  0.550967 *  0.557636 *   4.00000    1.000000    
    163 Si    c    0.271164 *  0.859139 *  0.660184 *   4.00000    1.000000    
    164 Si    c    0.146169 *  0.921351 *  0.567648 *   4.00000    1.000000    
    165 O     c    0.327824 *  0.678957 *  0.665426 *   0.86902    1.000000    
    166 O     c    0.345010 *  0.595031 *  0.595100 *   0.86902    1.000000    
    167 O     c    0.293120 *  0.568413 *  0.693085 *   0.86902    1.000000    
    168 O     c    0.294316 *  0.790006 *  0.663195 *   0.86902    1.000000    
    169 O     c    0.205653 *  0.871818 *  0.604373 *   0.86902    1.000000    
    170 O     c    0.183496 *  0.877019 *  0.708508 *   0.86902    1.000000    
    171 O     c    0.305148 *  0.566447 *  0.497090 *   0.86902    1.000000    
    172 O     c    0.205947 *  0.983755 *  0.581694 *   0.86902    1.000000    
    173 O     c    0.127723 *  0.560753 *  0.566351 *   0.86902    1.000000    
    174 O     c    0.396441 *  0.893364 *  0.663140 *   0.86902    1.000000    
    175 Si    c    0.867641 *  0.714757 *  0.191866 *   4.00000    1.000000    
    176 Si    c    0.869455 *  0.843629 *  0.162774 *   4.00000    1.000000    
    177 Si    c    0.770574 *  0.917108 *  0.069388 *   4.00000    1.000000    
    178 Si    c    0.769373 *  0.597131 *  0.153010 *   4.00000    1.000000    
    179 Si    c    0.645135 *  0.543279 *  0.057827 *   4.00000    1.000000    
    180 Si    c    0.766056 *  0.917180 *  0.255293 *   4.00000    1.000000    
    181 Si    c    0.661038 *  0.543187 *  0.255543 *   4.00000    1.000000    
    182 Si    c    0.008274 *  0.528129 *  0.167155 *   4.00000    1.000000    
    183 Si    c    0.505495 *  0.947377 *  0.082826 *   4.00000    1.000000    
    184 Si    c    0.510229 *  0.959696 *  0.277752 *   4.00000    1.000000    
    185 O     c    0.843316 *  0.774404 *  0.159228 *   0.86902    1.000000    
    186 O     c    0.843942 *  0.871540 *  0.105308 *   0.86902    1.000000    
    187 O     c    0.784555 *  0.871735 *  0.207559 *   0.86902    1.000000    
    188 O     c    0.779564 *  0.665350 *  0.168090 *   0.86902    1.000000    
    189 O     c    0.700531 *  0.592393 *  0.096632 *   0.86902    1.000000    
    190 O     c    0.690202 *  0.560725 *  0.195145 *   0.86902    1.000000    
    191 O     c    0.800788 *  0.902625 *  0.008273 *   0.86902    1.000000    
    192 O     c    0.709505 *  0.481584 *  0.070681 *   0.86902    1.000000    
    193 O     c    0.627543 *  0.908852 *  0.080211 *   0.86902    1.000000    
    194 O     c    0.902596 *  0.570524 *  0.147851 *   0.86902    1.000000    
    195 O     c    0.834677 *  0.725390 *  0.253323 *   0.86902    1.000000    
    196 O     c    0.702740 *  0.477847 *  0.268660 *   0.86902    1.000000    
    197 O     c    0.623979 *  0.917317 *  0.268454 *   0.86902    1.000000    
    198 O     c    0.008281 *  0.854893 *  0.179624 *   0.86902    1.000000    
    199 O     c    0.006877 *  0.694718 *  0.185949 *   0.86902    1.000000    
    200 O     c    0.986056 *  0.509442 *  0.228382 *   0.86902    1.000000    
    201 O     c    0.013021 *  0.470726 *  0.130515 *   0.86902    1.000000    
    202 O     c    0.503327 *  0.536346 *  0.067388 *   0.86902    1.000000    
    203 O     c    0.519745 *  0.547976 *  0.267070 *   0.86902    1.000000    
    204 O     c    0.006004 *  0.494438 *  0.027750 *   0.86902    1.000000    
    205 Si    c    0.145595 *  0.250827 *  0.691749 *   4.00000    1.000000    
    206 Si    c    0.145496 *  0.122672 *  0.660386 *   4.00000    1.000000    
    207 Si    c    0.245216 *  0.049711 *  0.567078 *   4.00000    1.000000    
    208 Si    c    0.243949 *  0.368713 *  0.653018 *   4.00000    1.000000    
    209 Si    c    0.368470 *  0.422019 *  0.557724 *   4.00000    1.000000    
    210 Si    c    0.251137 *  0.050772 *  0.753700 *   4.00000    1.000000    
    211 Si    c    0.352586 *  0.422899 *  0.755196 *   4.00000    1.000000    
    212 Si    c    0.004481 *  0.437267 *  0.667298 *   4.00000    1.000000    
    213 Si    c    0.509822 *  0.017805 *  0.582091 *   4.00000    1.000000    
    214 Si    c    0.503899 *  0.009883 *  0.778221 *   4.00000    1.000000    
    215 O     c    0.169442 *  0.192092 *  0.657846 *   0.86902    1.000000    
    216 O     c    0.173091 *  0.096208 *  0.602540 *   0.86902    1.000000    
    217 O     c    0.231125 *  0.094373 *  0.704736 *   0.86902    1.000000    
    218 O     c    0.233409 *  0.300680 *  0.668620 *   0.86902    1.000000    
    219 O     c    0.312464 *  0.372991 *  0.596519 *   0.86902    1.000000    
    220 O     c    0.323723 *  0.405245 *  0.694808 *   0.86902    1.000000    
    221 O     c    0.215009 *  0.063815 *  0.505726 *   0.86902    1.000000    
    222 O     c    0.304123 *  0.483729 *  0.570409 *   0.86902    1.000000    
    223 O     c    0.388475 *  0.056685 *  0.577793 *   0.86902    1.000000    
    224 O     c    0.110923 *  0.395487 *  0.647798 *   0.86902    1.000000    
    225 O     c    0.179454 *  0.238794 *  0.752955 *   0.86902    1.000000    
    226 O     c    0.311735 *  0.488399 *  0.767899 *   0.86902    1.000000    
    227 O     c    0.392836 *  0.053735 *  0.767749 *   0.86902    1.000000    
    228 O     c    0.007234 *  0.109815 *  0.677108 *   0.86902    1.000000    
    229 O     c    0.006087 *  0.270609 *  0.686491 *   0.86902    1.000000    
    230 O     c    0.026728 *  0.456166 *  0.728426 *   0.86902    1.000000    
    231 O     c    0.998326 *  0.494578 *  0.630505 *   0.86902    1.000000    
    232 O     c    0.510164 *  0.428839 *  0.567600 *   0.86902    1.000000    
    233 O     c    0.493676 *  0.417646 *  0.767074 *   0.86902    1.000000    
    234 O     c    0.006364 *  0.470962 *  0.527775 *   0.86902    1.000000    
    235 Si    c    0.867816 *  0.240249 *  0.817100 *   4.00000    1.000000    
    236 Si    c    0.867319 *  0.112744 *  0.854692 *   4.00000    1.000000    
    237 Si    c    0.771266 *  0.047530 *  0.953027 *   4.00000    1.000000    
    238 Si    c    0.764288 *  0.357932 *  0.849206 *   4.00000    1.000000    
    239 Si    c    0.648174 *  0.420720 *  0.942512 *   4.00000    1.000000    
    240 Si    c    0.766209 *  0.046442 *  0.756432 *   4.00000    1.000000    
    241 Si    c    0.634652 *  0.417232 *  0.754315 *   4.00000    1.000000    
    242 Si    c    0.005339 *  0.428098 *  0.870000 *   4.00000    1.000000    
    243 Si    c    0.511283 *  0.011764 *  0.974095 *   4.00000    1.000000    
    244 O     c    0.823773 *  0.177334 *  0.838093 *   0.86902    1.000000    
    245 O     c    0.797217 *  0.095231 *  0.908086 *   0.86902    1.000000    
    246 O     c    0.841416 *  0.067637 *  0.807267 *   0.86902    1.000000    
    247 O     c    0.796480 *  0.289331 *  0.850548 *   0.86902    1.000000    
    248 O     c    0.674767 *  0.371900 *  0.898146 *   0.86902    1.000000    
    249 O     c    0.699422 *  0.372105 *  0.793765 *   0.86902    1.000000    
    250 O     c    0.846530 *  0.062438 *  0.006150 *   0.86902    1.000000    
    251 O     c    0.706342 *  0.482315 *  0.923924 *   0.86902    1.000000    
    252 O     c    0.628556 *  0.051728 *  0.964700 *   0.86902    1.000000    
    253 O     c    0.884341 *  0.396088 *  0.852661 *   0.86902    1.000000    
    254 O     c    0.833927 *  0.245355 *  0.755164 *   0.86902    1.000000    
    255 O     c    0.687456 *  0.481499 *  0.764036 *   0.86902    1.000000    
    256 O     c    0.624671 *  0.047561 *  0.770325 *   0.86902    1.000000    
    257 O     c    0.008152 *  0.110628 *  0.867460 *   0.86902    1.000000    
    258 O     c    0.010149 *  0.248520 *  0.826002 *   0.86902    1.000000    
    259 O     c    0.026761 *  0.482501 *  0.830415 *   0.86902    1.000000    
    260 O     c    0.995372 *  0.452081 *  0.930168 *   0.86902    1.000000    
    261 O     c    0.505949 *  0.429859 *  0.950451 *   0.86902    1.000000    
    262 Si    c    0.147004 *  0.725427 *  0.316585 *   4.00000    1.000000    
    263 Si    c    0.149655 *  0.852553 *  0.354755 *   4.00000    1.000000    
    264 Si    c    0.244646 *  0.916960 *  0.453344 *   4.00000    1.000000    
    265 Si    c    0.249237 *  0.607531 *  0.348823 *   4.00000    1.000000    
    266 Si    c    0.364724 *  0.544535 *  0.442274 *   4.00000    1.000000    
    267 Si    c    0.248949 *  0.918704 *  0.255816 *   4.00000    1.000000    
    268 Si    c    0.378850 *  0.547809 *  0.254192 *   4.00000    1.000000    
    269 Si    c    0.008038 *  0.537545 *  0.370103 *   4.00000    1.000000    
    270 Si    c    0.505257 *  0.951133 *  0.475257 *   4.00000    1.000000    
    271 O     c    0.192540 *  0.788158 *  0.337339 *   0.86902    1.000000    
    272 O     c    0.217357 *  0.868626 *  0.409150 *   0.86902    1.000000    
    273 O     c    0.179794 *  0.898846 *  0.308772 *   0.86902    1.000000    
    274 O     c    0.218834 *  0.676296 *  0.349805 *   0.86902    1.000000    
    275 O     c    0.338771 *  0.593269 *  0.397697 *   0.86902    1.000000    
    276 O     c    0.313061 *  0.592863 *  0.293290 *   0.86902    1.000000    
    277 O     c    0.168229 *  0.903457 *  0.506488 *   0.86902    1.000000    
    278 O     c    0.306933 *  0.482884 *  0.423633 *   0.86902    1.000000    
    279 O     c    0.387204 *  0.911863 *  0.465269 *   0.86902    1.000000    
    280 O     c    0.128121 *  0.570245 *  0.352620 *   0.86902    1.000000    
    281 O     c    0.178995 *  0.720442 *  0.254476 *   0.86902    1.000000    
    282 O     c    0.327128 *  0.483383 *  0.264335 *   0.86902    1.000000    
    283 O     c    0.391234 *  0.921560 *  0.267399 *   0.86902    1.000000    
    284 O     c    0.008438 *  0.854820 *  0.366278 *   0.86902    1.000000    
    285 O     c    0.004849 *  0.717352 *  0.326295 *   0.86902    1.000000    
    286 O     c    0.987371 *  0.483191 *  0.330486 *   0.86902    1.000000    
    287 O     c    0.019093 *  0.513416 *  0.430216 *   0.86902    1.000000    
    288 O     c    0.506905 *  0.535582 *  0.450591 *   0.86902    1.000000    
    289 Si    c    0.151389 *  0.237710 *  0.815661 *   4.00000    1.000000    
    290 Si    c    0.148702 *  0.111045 *  0.853943 *   4.00000    1.000000    
    291 Si    c    0.247859 *  0.044267 *  0.951488 *   4.00000    1.000000    
    292 Si    c    0.241240 *  0.356344 *  0.850994 *   4.00000    1.000000    
    293 Si    c    0.364591 *  0.419350 *  0.941542 *   4.00000    1.000000    
    294 O     c    0.194541 *  0.175590 *  0.838578 *   0.86902    1.000000    
    295 O     c    0.219373 *  0.091300 *  0.906394 *   0.86902    1.000000    
    296 O     c    0.171830 *  0.067522 *  0.804911 *   0.86902    1.000000    
    297 O     c    0.228957 *  0.286476 *  0.846627 *   0.86902    1.000000    
    298 O     c    0.342130 *  0.371946 *  0.895215 *   0.86902    1.000000    
    299 O     c    0.278285 *  0.379988 *  0.793300 *   0.86902    1.000000    
    300 O     c    0.175946 *  0.060668 *  0.005164 *   0.86902    1.000000    
    301 O     c    0.302759 *  0.480426 *  0.923461 *   0.86902    1.000000    
    302 O     c    0.391324 *  0.048094 *  0.960694 *   0.86902    1.000000    
    303 O     c    0.113624 *  0.382430 *  0.868625 *   0.86902    1.000000    
    304 Si    c    0.863499 *  0.727793 *  0.315872 *   4.00000    1.000000    
    305 Si    c    0.867253 *  0.854335 *  0.354609 *   4.00000    1.000000    
    306 Si    c    0.768391 *  0.919709 *  0.452512 *   4.00000    1.000000    
    307 Si    c    0.771937 *  0.609559 *  0.351445 *   4.00000    1.000000    
    308 Si    c    0.648247 *  0.546304 *  0.441763 *   4.00000    1.000000    
    309 O     c    0.820678 *  0.790390 *  0.337779 *   0.86902    1.000000    
    310 O     c    0.799385 *  0.871981 *  0.408398 *   0.86902    1.000000    
    311 O     c    0.840713 *  0.900049 *  0.307661 *   0.86902    1.000000    
    312 O     c    0.786132 *  0.679417 *  0.347569 *   0.86902    1.000000    
    313 O     c    0.670770 *  0.593977 *  0.395584 *   0.86902    1.000000    
    314 O     c    0.734075 *  0.586582 *  0.293635 *   0.86902    1.000000    
    315 O     c    0.841312 *  0.905007 *  0.506270 *   0.86902    1.000000    
    316 O     c    0.710295 *  0.485333 *  0.423565 *   0.86902    1.000000    
    317 O     c    0.625016 *  0.914479 *  0.461949 *   0.86902    1.000000    
    318 O     c    0.898851 *  0.582650 *  0.368967 *   0.86902    1.000000    
    319 Si    c    0.146584 *  0.713696 *  0.192511 *   4.00000    1.000000    
    320 Si    c    0.147569 *  0.843453 *  0.163649 *   4.00000    1.000000    
    321 Si    c    0.245234 *  0.912934 *  0.067114 *   4.00000    1.000000    
    322 Si    c    0.254837 *  0.597037 *  0.155487 *   4.00000    1.000000    
    323 Si    c    0.361730 *  0.541876 *  0.056489 *   4.00000    1.000000    
    324 O     c    0.173990 *  0.774335 *  0.162281 *   0.86902    1.000000    
    325 O     c    0.174446 *  0.868752 *  0.105313 *   0.86902    1.000000    
    326 O     c    0.231468 *  0.873459 *  0.207771 *   0.86902    1.000000    
    327 O     c    0.233224 *  0.665519 *  0.165995 *   0.86902    1.000000    
    328 O     c    0.302336 *  0.589871 *  0.095281 *   0.86902    1.000000    
    329 O     c    0.356824 *  0.570081 *  0.194222 *   0.86902    1.000000    
    330 O     c    0.209515 *  0.896784 *  0.006782 *   0.86902    1.000000    
    331 O     c    0.300009 *  0.479463 *  0.068199 *   0.86902    1.000000    
    332 O     c    0.389498 *  0.905224 *  0.075254 *   0.86902    1.000000    
    333 O     c    0.133144 *  0.561843 *  0.165501 *   0.86902    1.000000    
    334 Si    c    0.866547 *  0.251350 *  0.693147 *   4.00000    1.000000    
    335 Si    c    0.867157 *  0.121328 *  0.662849 *   4.00000    1.000000    
    336 Si    c    0.770021 *  0.052970 *  0.566054 *   4.00000    1.000000    
    337 Si    c    0.758596 *  0.367849 *  0.655739 *   4.00000    1.000000    
    338 Si    c    0.651914 *  0.423838 *  0.556914 *   4.00000    1.000000    
    339 O     c    0.839195 *  0.190262 *  0.663869 *   0.86902    1.000000    
    340 O     c    0.838222 *  0.098470 *  0.603878 *   0.86902    1.000000    
    341 O     c    0.785532 *  0.088295 *  0.705998 *   0.86902    1.000000    
    342 O     c    0.779930 *  0.299233 *  0.665991 *   0.86902    1.000000    
    343 O     c    0.711574 *  0.375667 *  0.595520 *   0.86902    1.000000    
    344 O     c    0.656462 *  0.394548 *  0.694495 *   0.86902    1.000000    
    345 O     c    0.806651 *  0.068480 *  0.505657 *   0.86902    1.000000    
    346 O     c    0.712610 *  0.486419 *  0.568976 *   0.86902    1.000000    
    347 O     c    0.625506 *  0.059783 *  0.573272 *   0.86902    1.000000    
    348 O     c    0.880500 *  0.402763 *  0.666112 *   0.86902    1.000000    
    349 O     s    0.320298 *  0.288165 *  0.168934 *  -2.86902    1.000000    
    350 O     s    0.338501 *  0.369046 *  0.095968 *  -2.86902    1.000000    
    351 O     s    0.289620 *  0.400051 *  0.193919 *  -2.86902    1.000000    
    352 O     s    0.283423 *  0.176979 *  0.163123 *  -2.86902    1.000000    
    353 O     s    0.216149 *  0.091702 *  0.102397 *  -2.86902    1.000000    
    354 O     s    0.165867 *  0.087765 *  0.204540 *  -2.86902    1.000000    
    355 O     s    0.306560 *  0.395495 *  0.996207 *  -2.86902    1.000000    
    356 O     s    0.210292 *  0.979874 *  0.080135 *  -2.86902    1.000000    
    357 O     s    0.124051 *  0.402316 *  0.062877 *  -2.86902    1.000000    
    358 O     s    0.390750 *  0.076489 *  0.173306 *  -2.86902    1.000000    
    359 O     s    0.331339 *  0.224895 *  0.255540 *  -2.86902    1.000000    
    360 O     s    0.195766 *  0.980767 *  0.236917 *  -2.86902    1.000000    
    361 O     s    0.125521 *  0.422714 *  0.264897 *  -2.86902    1.000000    
    362 O     s    0.503893 *  0.361375 *  0.171308 *  -2.86902    1.000000    
    363 O     s    0.503276 *  0.214719 *  0.183011 *  -2.86902    1.000000    
    364 O     s    0.517107 *  0.015672 *  0.238575 *  -2.86902    1.000000    
    365 O     s    0.494990 *  0.978918 *  0.139888 *  -2.86902    1.000000    
    366 O     s    0.011395 *  0.039771 *  0.078375 *  -2.86902    1.000000    
    367 O     s    0.003158 *  0.040599 *  0.266710 *  -2.86902    1.000000    
    368 O     s    0.507466 *  0.995621 *  0.036267 *  -2.86902    1.000000    
    369 O     s    0.694474 *  0.677718 *  0.669715 *  -2.86902    1.000000    
    370 O     s    0.675859 *  0.597264 *  0.596169 *  -2.86902    1.000000    
    371 O     s    0.723286 *  0.565518 *  0.694025 *  -2.86902    1.000000    
    372 O     s    0.729384 *  0.789563 *  0.663233 *  -2.86902    1.000000    
    373 O     s    0.798366 *  0.875109 *  0.603513 *  -2.86902    1.000000    
    374 O     s    0.851225 *  0.876868 *  0.705572 *  -2.86902    1.000000    
    375 O     s    0.705891 *  0.570014 *  0.496506 *  -2.86902    1.000000    
    376 O     s    0.807290 *  0.986627 *  0.580394 *  -2.86902    1.000000    
    377 O     s    0.889234 *  0.563295 *  0.562659 *  -2.86902    1.000000    
    378 O     s    0.627109 *  0.891641 *  0.675801 *  -2.86902    1.000000    
    379 O     s    0.683429 *  0.742054 *  0.755889 *  -2.86902    1.000000    
    380 O     s    0.807350 *  0.981503 *  0.740645 *  -2.86902    1.000000    
    381 O     s    0.887656 *  0.543024 *  0.765093 *  -2.86902    1.000000    
    382 O     s    0.509628 *  0.604884 *  0.670988 *  -2.86902    1.000000    
    383 O     s    0.511191 *  0.750640 *  0.683230 *  -2.86902    1.000000    
    384 O     s    0.498243 *  0.953874 *  0.739067 *  -2.86902    1.000000    
    385 O     s    0.520203 *  0.988227 *  0.640069 *  -2.86902    1.000000    
    386 O     s    0.004857 *  0.925451 *  0.579836 *  -2.86902    1.000000    
    387 O     s    0.015528 *  0.932615 *  0.761395 *  -2.86902    1.000000    
    388 O     s    0.508304 *  0.967313 *  0.537494 *  -2.86902    1.000000    
    389 O     s    0.346082 *  0.691007 *  0.851096 *  -2.86902    1.000000    
    390 O     s    0.289132 *  0.592542 *  0.896959 *  -2.86902    1.000000    
    391 O     s    0.327299 *  0.599050 *  0.792109 *  -2.86902    1.000000    
    392 O     s    0.277486 *  0.798604 *  0.838633 *  -2.86902    1.000000    
    393 O     s    0.174199 *  0.870441 *  0.906149 *  -2.86902    1.000000    
    394 O     s    0.218437 *  0.905993 *  0.808754 *  -2.86902    1.000000    
    395 O     s    0.337595 *  0.562472 *  0.995992 *  -2.86902    1.000000    
    396 O     s    0.208238 *  0.979367 *  0.932633 *  -2.86902    1.000000    
    397 O     s    0.121586 *  0.548441 *  0.952643 *  -2.86902    1.000000    
    398 O     s    0.396908 *  0.887957 *  0.874757 *  -2.86902    1.000000    
    399 O     s    0.337286 *  0.737300 *  0.754809 *  -2.86902    1.000000    
    400 O     s    0.214235 *  0.985991 *  0.734760 *  -2.86902    1.000000    
    401 O     s    0.119152 *  0.555458 *  0.762487 *  -2.86902    1.000000    
    402 O     s    0.504874 *  0.604110 *  0.859105 *  -2.86902    1.000000    
    403 O     s    0.506953 *  0.769877 *  0.821590 *  -2.86902    1.000000    
    404 O     s    0.493582 *  0.987237 *  0.838857 *  -2.86902    1.000000    
    405 O     s    0.520555 *  0.953330 *  0.938184 *  -2.86902    1.000000    
    406 O     s    0.006377 *  0.926948 *  0.961582 *  -2.86902    1.000000    
    407 O     s    0.665482 *  0.274640 *  0.351344 *  -2.86902    1.000000    
    408 O     s    0.722422 *  0.373019 *  0.397435 *  -2.86902    1.000000    
    409 O     s    0.685380 *  0.366944 *  0.292554 *  -2.86902    1.000000    
    410 O     s    0.734847 *  0.167269 *  0.340589 *  -2.86902    1.000000    
    411 O     s    0.846173 *  0.093307 *  0.404726 *  -2.86902    1.000000    
    412 O     s    0.790587 *  0.061188 *  0.306881 *  -2.86902    1.000000    
    413 O     s    0.676527 *  0.403535 *  0.496434 *  -2.86902    1.000000    
    414 O     s    0.805064 *  0.984748 *  0.432617 *  -2.86902    1.000000    
    415 O     s    0.891730 *  0.417227 *  0.452150 *  -2.86902    1.000000    
    416 O     s    0.622734 *  0.075774 *  0.377728 *  -2.86902    1.000000    
    417 O     s    0.675536 *  0.227143 *  0.255649 *  -2.86902    1.000000    
    418 O     s    0.813081 *  0.980074 *  0.235216 *  -2.86902    1.000000    
    419 O     s    0.894058 *  0.410175 *  0.263046 *  -2.86902    1.000000    
    420 O     s    0.506983 *  0.361376 *  0.359083 *  -2.86902    1.000000    
    421 O     s    0.504956 *  0.195138 *  0.322138 *  -2.86902    1.000000    
    422 O     s    0.512192 *  0.981743 *  0.338537 *  -2.86902    1.000000    
    423 O     s    0.498401 *  0.009793 *  0.439922 *  -2.86902    1.000000    
    424 O     s    0.008760 *  0.034920 *  0.461676 *  -2.86902    1.000000    
    425 O     s    0.666808 *  0.688185 *  0.847610 *  -2.86902    1.000000    
    426 O     s    0.719936 *  0.593832 *  0.898394 *  -2.86902    1.000000    
    427 O     s    0.684093 *  0.591154 *  0.793616 *  -2.86902    1.000000    
    428 O     s    0.733084 *  0.796122 *  0.845211 *  -2.86902    1.000000    
    429 O     s    0.831475 *  0.871405 *  0.909890 *  -2.86902    1.000000    
    430 O     s    0.827533 *  0.893751 *  0.808609 *  -2.86902    1.000000    
    431 O     s    0.668888 *  0.563342 *  0.997186 *  -2.86902    1.000000    
    432 O     s    0.809992 *  0.982995 *  0.932382 *  -2.86902    1.000000    
    433 O     s    0.886258 *  0.550966 *  0.955678 *  -2.86902    1.000000    
    434 O     s    0.626332 *  0.896499 *  0.860035 *  -2.86902    1.000000    
    435 O     s    0.345422 *  0.276811 *  0.348132 *  -2.86902    1.000000    
    436 O     s    0.292039 *  0.371377 *  0.398408 *  -2.86902    1.000000    
    437 O     s    0.327687 *  0.373560 *  0.293543 *  -2.86902    1.000000    
    438 O     s    0.275889 *  0.168976 *  0.342891 *  -2.86902    1.000000    
    439 O     s    0.173743 *  0.091715 *  0.405937 *  -2.86902    1.000000    
    440 O     s    0.213906 *  0.065363 *  0.305494 *  -2.86902    1.000000    
    441 O     s    0.345101 *  0.402016 *  0.497038 *  -2.86902    1.000000    
    442 O     s    0.208212 *  0.981549 *  0.431782 *  -2.86902    1.000000    
    443 O     s    0.127085 *  0.414416 *  0.456189 *  -2.86902    1.000000    
    444 O     s    0.393538 *  0.075717 *  0.370026 *  -2.86902    1.000000    
    445 O     s    0.686062 *  0.287248 *  0.167100 *  -2.86902    1.000000    
    446 O     s    0.669002 *  0.370262 *  0.095735 *  -2.86902    1.000000    
    447 O     s    0.719830 *  0.398054 *  0.193638 *  -2.86902    1.000000    
    448 O     s    0.721963 *  0.176470 *  0.163733 *  -2.86902    1.000000    
    449 O     s    0.813442 *  0.095984 *  0.103763 *  -2.86902    1.000000    
    450 O     s    0.836414 *  0.088925 *  0.207292 *  -2.86902    1.000000    
    451 O     s    0.706776 *  0.398745 *  0.997530 *  -2.86902    1.000000    
    452 O     s    0.807855 *  0.983631 *  0.082981 *  -2.86902    1.000000    
    453 O     s    0.885550 *  0.404331 *  0.066094 *  -2.86902    1.000000    
    454 O     s    0.622737 *  0.072608 *  0.161787 *  -2.86902    1.000000    
    455 O     s    0.327824 *  0.678957 *  0.665426 *  -2.86902    1.000000    
    456 O     s    0.345010 *  0.595031 *  0.595100 *  -2.86902    1.000000    
    457 O     s    0.293120 *  0.568413 *  0.693085 *  -2.86902    1.000000    
    458 O     s    0.294316 *  0.790006 *  0.663195 *  -2.86902    1.000000    
    459 O     s    0.205653 *  0.871818 *  0.604373 *  -2.86902    1.000000    
    460 O     s    0.183496 *  0.877019 *  0.708508 *  -2.86902    1.000000    
    461 O     s    0.305148 *  0.566447 *  0.497090 *  -2.86902    1.000000    
    462 O     s    0.205947 *  0.983755 *  0.581694 *  -2.86902    1.000000    
    463 O     s    0.127723 *  0.560753 *  0.566351 *  -2.86902    1.000000    
    464 O     s    0.396441 *  0.893364 *  0.663140 *  -2.86902    1.000000    
    465 O     s    0.843316 *  0.774404 *  0.159228 *  -2.86902    1.000000    
    466 O     s    0.843942 *  0.871540 *  0.105308 *  -2.86902    1.000000    
    467 O     s    0.784555 *  0.871735 *  0.207559 *  -2.86902    1.000000    
    468 O     s    0.779564 *  0.665350 *  0.168090 *  -2.86902    1.000000    
    469 O     s    0.700531 *  0.592393 *  0.096632 *  -2.86902    1.000000    
    470 O     s    0.690202 *  0.560725 *  0.195145 *  -2.86902    1.000000    
    471 O     s    0.800788 *  0.902625 *  0.008273 *  -2.86902    1.000000    
    472 O     s    0.709505 *  0.481584 *  0.070681 *  -2.86902    1.000000    
    473 O     s    0.627543 *  0.908852 *  0.080211 *  -2.86902    1.000000    
    474 O     s    0.902596 *  0.570524 *  0.147851 *  -2.86902    1.000000    
    475 O     s    0.834677 *  0.725390 *  0.253323 *  -2.86902    1.000000    
    476 O     s    0.702740 *  0.477847 *  0.268660 *  -2.86902    1.000000    
    477 O     s    0.623979 *  0.917317 *  0.268454 *  -2.86902    1.000000    
    478 O     s    0.008281 *  0.854893 *  0.179624 *  -2.86902    1.000000    
    479 O     s    0.006877 *  0.694718 *  0.185949 *  -2.86902    1.000000    
    480 O     s    0.986056 *  0.509442 *  0.228382 *  -2.86902    1.000000    
    481 O     s    0.013021 *  0.470726 *  0.130515 *  -2.86902    1.000000    
    482 O     s    0.503327 *  0.536346 *  0.067388 *  -2.86902    1.000000    
    483 O     s    0.519745 *  0.547976 *  0.267070 *  -2.86902    1.000000    
    484 O     s    0.006004 *  0.494438 *  0.027750 *  -2.86902    1.000000    
    485 O     s    0.169442 *  0.192092 *  0.657846 *  -2.86902    1.000000    
    486 O     s    0.173091 *  0.096208 *  0.602540 *  -2.86902    1.000000    
    487 O     s    0.231125 *  0.094373 *  0.704736 *  -2.86902    1.000000    
    488 O     s    0.233409 *  0.300680 *  0.668620 *  -2.86902    1.000000    
    489 O     s    0.312464 *  0.372991 *  0.596519 *  -2.86902    1.000000    
    490 O     s    0.323723 *  0.405245 *  0.694808 *  -2.86902    1.000000    
    491 O     s    0.215009 *  0.063815 *  0.505726 *  -2.86902    1.000000    
    492 O     s    0.304123 *  0.483729 *  0.570409 *  -2.86902    1.000000    
    493 O     s    0.388475 *  0.056685 *  0.577793 *  -2.86902    1.000000    
    494 O     s    0.110923 *  0.395487 *  0.647798 *  -2.86902    1.000000    
    495 O     s    0.179454 *  0.238794 *  0.752955 *  -2.86902    1.000000    
    496 O     s    0.311735 *  0.488399 *  0.767899 *  -2.86902    1.000000    
    497 O     s    0.392836 *  0.053735 *  0.767749 *  -2.86902    1.000000    
    498 O     s    0.007234 *  0.109815 *  0.677108 *  -2.86902    1.000000    
    499 O     s    0.006087 *  0.270609 *  0.686491 *  -2.86902    1.000000    
    500 O     s    0.026728 *  0.456166 *  0.728426 *  -2.86902    1.000000    
    501 O     s    0.998326 *  0.494578 *  0.630505 *  -2.86902    1.000000    
    502 O     s    0.510164 *  0.428839 *  0.567600 *  -2.86902    1.000000    
    503 O     s    0.493676 *  0.417646 *  0.767074 *  -2.86902    1.000000    
    504 O     s    0.006364 *  0.470962 *  0.527775 *  -2.86902    1.000000    
    505 O     s    0.823773 *  0.177334 *  0.838093 *  -2.86902    1.000000    
    506 O     s    0.797217 *  0.095231 *  0.908086 *  -2.86902    1.000000    
    507 O     s    0.841416 *  0.067637 *  0.807267 *  -2.86902    1.000000    
    508 O     s    0.796480 *  0.289331 *  0.850548 *  -2.86902    1.000000    
    509 O     s    0.674767 *  0.371900 *  0.898146 *  -2.86902    1.000000    
    510 O     s    0.699422 *  0.372105 *  0.793765 *  -2.86902    1.000000    
    511 O     s    0.846530 *  0.062438 *  0.006150 *  -2.86902    1.000000    
    512 O     s    0.706342 *  0.482315 *  0.923924 *  -2.86902    1.000000    
    513 O     s    0.628556 *  0.051728 *  0.964700 *  -2.86902    1.000000    
    514 O     s    0.884341 *  0.396088 *  0.852661 *  -2.86902    1.000000    
    515 O     s    0.833927 *  0.245355 *  0.755164 *  -2.86902    1.000000    
    516 O     s    0.687456 *  0.481499 *  0.764036 *  -2.86902    1.000000    
    517 O     s    0.624671 *  0.047561 *  0.770325 *  -2.86902    1.000000    
    518 O     s    0.008152 *  0.110628 *  0.867460 *  -2.86902    1.000000    
    519 O     s    0.010149 *  0.248520 *  0.826002 *  -2.86902    1.000000    
    520 O     s    0.026761 *  0.482501 *  0.830415 *  -2.86902    1.000000    
    521 O     s    0.995372 *  0.452081 *  0.930168 *  -2.86902    1.000000    
    522 O     s    0.505949 *  0.429859 *  0.950451 *  -2.86902    1.000000    
    523 O     s    0.192540 *  0.788158 *  0.337339 *  -2.86902    1.000000    
    524 O     s    0.217357 *  0.868626 *  0.409150 *  -2.86902    1.000000    
    525 O     s    0.179794 *  0.898846 *  0.308772 *  -2.86902    1.000000    
    526 O     s    0.218834 *  0.676296 *  0.349805 *  -2.86902    1.000000    
    527 O     s    0.338771 *  0.593269 *  0.397697 *  -2.86902    1.000000    
    528 O     s    0.313061 *  0.592863 *  0.293290 *  -2.86902    1.000000    
    529 O     s    0.168229 *  0.903457 *  0.506488 *  -2.86902    1.000000    
    530 O     s    0.306933 *  0.482884 *  0.423633 *  -2.86902    1.000000    
    531 O     s    0.387204 *  0.911863 *  0.465269 *  -2.86902    1.000000    
    532 O     s    0.128121 *  0.570245 *  0.352620 *  -2.86902    1.000000    
    533 O     s    0.178995 *  0.720442 *  0.254476 *  -2.86902    1.000000    
    534 O     s    0.327128 *  0.483383 *  0.264335 *  -2.86902    1.000000    
    535 O     s    0.391234 *  0.921560 *  0.267399 *  -2.86902    1.000000    
    536 O     s    0.008438 *  0.854820 *  0.366278 *  -2.86902    1.000000    
    537 O     s    0.004849 *  0.717352 *  0.326295 *  -2.86902    1.000000    
    538 O     s    0.987371 *  0.483191 *  0.330486 *  -2.86902    1.000000    
    539 O     s    0.019093 *  0.513416 *  0.430216 *  -2.86902    1.000000    
    540 O     s    0.506905 *  0.535582 *  0.450591 *  -2.86902    1.000000    
    541 O     s    0.194541 *  0.175590 *  0.838578 *  -2.86902    1.000000    
    542 O     s    0.219373 *  0.091300 *  0.906394 *  -2.86902    1.000000    
    543 O     s    0.171830 *  0.067522 *  0.804911 *  -2.86902    1.000000    
    544 O     s    0.228957 *  0.286476 *  0.846627 *  -2.86902    1.000000    
    545 O     s    0.342130 *  0.371946 *  0.895215 *  -2.86902    1.000000    
    546 O     s    0.278285 *  0.379988 *  0.793300 *  -2.86902    1.000000    
    547 O     s    0.175946 *  0.060668 *  0.005164 *  -2.86902    1.000000    
    548 O     s    0.302759 *  0.480426 *  0.923461 *  -2.86902    1.000000    
    549 O     s    0.391324 *  0.048094 *  0.960694 *  -2.86902    1.000000    
    550 O     s    0.113624 *  0.382430 *  0.868625 *  -2.86902    1.000000    
    551 O     s    0.820678 *  0.790390 *  0.337779 *  -2.86902    1.000000    
    552 O     s    0.799385 *  0.871981 *  0.408398 *  -2.86902    1.000000    
    553 O     s    0.840713 *  0.900049 *  0.307661 *  -2.86902    1.000000    
    554 O     s    0.786132 *  0.679417 *  0.347569 *  -2.86902    1.000000    
    555 O     s    0.670770 *  0.593977 *  0.395584 *  -2.86902    1.000000    
    556 O     s    0.734075 *  0.586582 *  0.293635 *  -2.86902    1.000000    
    557 O     s    0.841312 *  0.905007 *  0.506270 *  -2.86902    1.000000    
    558 O     s    0.710295 *  0.485333 *  0.423565 *  -2.86902    1.000000    
    559 O     s    0.625016 *  0.914479 *  0.461949 *  -2.86902    1.000000    
    560 O     s    0.898851 *  0.582650 *  0.368967 *  -2.86902    1.000000    
    561 O     s    0.173990 *  0.774335 *  0.162281 *  -2.86902    1.000000    
    562 O     s    0.174446 *  0.868752 *  0.105313 *  -2.86902    1.000000    
    563 O     s    0.231468 *  0.873459 *  0.207771 *  -2.86902    1.000000    
    564 O     s    0.233224 *  0.665519 *  0.165995 *  -2.86902    1.000000    
    565 O     s    0.302336 *  0.589871 *  0.095281 *  -2.86902    1.000000    
    566 O     s    0.356824 *  0.570081 *  0.194222 *  -2.86902    1.000000    
    567 O     s    0.209515 *  0.896784 *  0.006782 *  -2.86902    1.000000    
    568 O     s    0.300009 *  0.479463 *  0.068199 *  -2.86902    1.000000    
    569 O     s    0.389498 *  0.905224 *  0.075254 *  -2.86902    1.000000    
    570 O     s    0.133144 *  0.561843 *  0.165501 *  -2.86902    1.000000    
    571 O     s    0.839195 *  0.190262 *  0.663869 *  -2.86902    1.000000    
    572 O     s    0.838222 *  0.098470 *  0.603878 *  -2.86902    1.000000    
    573 O     s    0.785532 *  0.088295 *  0.705998 *  -2.86902    1.000000    
    574 O     s    0.779930 *  0.299233 *  0.665991 *  -2.86902    1.000000    
    575 O     s    0.711574 *  0.375667 *  0.595520 *  -2.86902    1.000000    
    576 O     s    0.656462 *  0.394548 *  0.694495 *  -2.86902    1.000000    
    577 O     s    0.806651 *  0.068480 *  0.505657 *  -2.86902    1.000000    
    578 O     s    0.712610 *  0.486419 *  0.568976 *  -2.86902    1.000000    
    579 O     s    0.625506 *  0.059783 *  0.573272 *  -2.86902    1.000000    
    580 O     s    0.880500 *  0.402763 *  0.666112 *  -2.86902    1.000000    
--------------------------------------------------------------------------------



********************************************************************************
*  General input information                                                   *
********************************************************************************

  Species output for all configurations : 

--------------------------------------------------------------------------------
  Species    Type    Atomic    Atomic    Charge       Radii (Angs)     Library
                     Number     Mass       (e)     Cova   Ionic  VDW   Symbol
--------------------------------------------------------------------------------
    O        Core        8      16.00   0.869020   0.730  0.000  1.360 O        
    O        Shell       8       0.00  -2.869020   0.730  0.000  0.000 O        
    Si       Core       14      28.09   4.000000   1.200  0.000  2.100 Si       
