********************************************************************************
*                       GENERAL UTILITY LATTICE PROGRAM                        *
*                                 Julian Gale                                  *
*                       Curtin Institute for Computation                       *
*                    School of Molecular and Life Sciences                     *
*                    Curtin University, Western Australia                      *
********************************************************************************
* Version = 6.1.2 * Last modified =   3rd November 2022                        *
********************************************************************************
*  optimise     - perform optimisation run                                     *
*  conp         - constant pressure calculation                                *
*  nosymmetry   - turn off symmetry after initial structure generation         *
********************************************************************************

  Job Started  at 14:14.07 20th April      2023                               

  Number of CPUs =     8


  Total number of configurations input =      1

********************************************************************************
*  Input for Configuration =   1 : ReferenceDataBase/EWF                       *
********************************************************************************

  Formula = Si116O232                                                   

  Number of irreducible atoms/shells =     580


  Total number atoms/shells =     580

  Dimensionality = 3               :  Bulk   



  Cartesian lattice vectors (Angstroms) :

       11.048400    0.000000    0.000000
        0.004062   22.814500    0.000000
       -0.001835    0.017476   25.032294

  Cell parameters (Angstroms/Degrees):

  a =      11.0484    alpha =  89.9600
  b =      22.8145    beta  =  90.0042
  c =      25.0323    gamma =  89.9898

  Initial cell volume =        6309.733049 Angs**3

  Temperature of configuration =   0.00     K 

  Pressure of configuration =         0.000 GPa 

  Fractional coordinates of asymmetric unit :

--------------------------------------------------------------------------------
   No.  Atomic       x           y          z         Charge      Occupancy
        Label      (Frac)      (Frac)     (Frac)        (e)         (Frac)  
--------------------------------------------------------------------------------
      1 Si    c    0.361934 *  0.226162 *  0.193109 *   4.00000    1.000000    
      2 Si    c    0.363109 *  0.354202 *  0.157615 *   4.00000    1.000000    
      3 Si    c    0.268033 *  0.411982 *  0.056145 *   4.00000    1.000000    
      4 Si    c    0.264589 *  0.107299 *  0.160865 *   4.00000    1.000000    
      5 Si    c    0.152810 *  0.042769 *  0.066246 *   4.00000    1.000000    
      6 Si    c    0.268090 *  0.420590 *  0.254506 *   4.00000    1.000000    
      7 Si    c    0.144121 *  0.043906 *  0.253626 *   4.00000    1.000000    
      8 Si    c    0.506425 *  0.035728 *  0.177147 *   4.00000    1.000000    
      9 Si    c    0.006629 *  0.443148 *  0.071717 *   4.00000    1.000000    
     10 Si    c    0.000821 *  0.457183 *  0.271322 *   4.00000    1.000000    
     11 O     c    0.320299 *  0.288166 *  0.168934 *   0.86902    1.000000    
     12 O     c    0.338503 *  0.369046 *  0.095968 *   0.86902    1.000000    
     13 O     c    0.289619 *  0.400052 *  0.193918 *   0.86902    1.000000    
     14 O     c    0.283421 *  0.176980 *  0.163124 *   0.86902    1.000000    
     15 O     c    0.216159 *  0.091701 *  0.102395 *   0.86902    1.000000    
     16 O     c    0.165863 *  0.087764 *  0.204537 *   0.86902    1.000000    
     17 O     c    0.306560 *  0.395494 *  0.996206 *   0.86902    1.000000    
     18 O     c    0.210294 *  0.979874 *  0.080134 *   0.86902    1.000000    
     19 O     c    0.124051 *  0.402315 *  0.062877 *   0.86902    1.000000    
     20 O     c    0.390752 *  0.076491 *  0.173310 *   0.86902    1.000000    
     21 O     c    0.331341 *  0.224894 *  0.255540 *   0.86902    1.000000    
     22 O     c    0.195765 *  0.980767 *  0.236916 *   0.86902    1.000000    
     23 O     c    0.125523 *  0.422716 *  0.264897 *   0.86902    1.000000    
     24 O     c    0.503893 *  0.361375 *  0.171309 *   0.86902    1.000000    
     25 O     c    0.503276 *  0.214719 *  0.183011 *   0.86902    1.000000    
     26 O     c    0.517115 *  0.015672 *  0.238575 *   0.86902    1.000000    
     27 O     c    0.494984 *  0.978920 *  0.139887 *   0.86902    1.000000    
     28 O     c    0.011400 *  0.039774 *  0.078374 *   0.86902    1.000000    
     29 O     c    0.003158 *  0.040599 *  0.266711 *   0.86902    1.000000    
     30 O     c    0.507469 *  0.995619 *  0.036266 *   0.86902    1.000000    
     31 Si    c    0.652519 *  0.739928 *  0.693456 *   4.00000    1.000000    
     32 Si    c    0.650739 *  0.611886 *  0.657822 *   4.00000    1.000000    
     33 Si    c    0.745088 *  0.553803 *  0.556432 *   4.00000    1.000000    
     34 Si    c    0.750764 *  0.859146 *  0.662012 *   4.00000    1.000000    
     35 Si    c    0.863577 *  0.923329 *  0.567236 *   4.00000    1.000000    
     36 Si    c    0.745050 *  0.544663 *  0.754530 *   4.00000    1.000000    
     37 Si    c    0.874713 *  0.921065 *  0.754256 *   4.00000    1.000000    
     38 Si    c    0.510472 *  0.932009 *  0.678314 *   4.00000    1.000000    
     39 Si    c    0.006195 *  0.522211 *  0.571727 *   4.00000    1.000000    
     40 Si    c    0.012486 *  0.508513 *  0.771227 *   4.00000    1.000000    
     41 O     c    0.694476 *  0.677718 *  0.669716 *   0.86902    1.000000    
     42 O     c    0.675861 *  0.597265 *  0.596169 *   0.86902    1.000000    
     43 O     c    0.723288 *  0.565518 *  0.694025 *   0.86902    1.000000    
     44 O     c    0.729385 *  0.789563 *  0.663232 *   0.86902    1.000000    
     45 O     c    0.798366 *  0.875110 *  0.603513 *   0.86902    1.000000    
     46 O     c    0.851229 *  0.876868 *  0.705571 *   0.86902    1.000000    
     47 O     c    0.705892 *  0.570015 *  0.496506 *   0.86902    1.000000    
     48 O     c    0.807291 *  0.986627 *  0.580392 *   0.86902    1.000000    
     49 O     c    0.889236 *  0.563295 *  0.562658 *   0.86902    1.000000    
     50 O     c    0.627112 *  0.891642 *  0.675802 *   0.86902    1.000000    
     51 O     c    0.683432 *  0.742056 *  0.755888 *   0.86902    1.000000    
     52 O     c    0.807344 *  0.981500 *  0.740650 *   0.86902    1.000000    
     53 O     c    0.887656 *  0.543021 *  0.765092 *   0.86902    1.000000    
     54 O     c    0.509630 *  0.604885 *  0.670988 *   0.86902    1.000000    
     55 O     c    0.511192 *  0.750640 *  0.683231 *   0.86902    1.000000    
     56 O     c    0.498243 *  0.953876 *  0.739067 *   0.86902    1.000000    
     57 O     c    0.520206 *  0.988227 *  0.640068 *   0.86902    1.000000    
     58 O     c    0.004858 *  0.925452 *  0.579835 *   0.86902    1.000000    
     59 O     c    0.015531 *  0.932619 *  0.761391 *   0.86902    1.000000    
     60 O     c    0.508306 *  0.967313 *  0.537493 *   0.86902    1.000000    
     61 Si    c    0.367943 *  0.749331 *  0.816375 *   4.00000    1.000000    
     62 Si    c    0.366238 *  0.621305 *  0.850063 *   4.00000    1.000000    
     63 Si    c    0.264644 *  0.545488 *  0.942595 *   4.00000    1.000000    
     64 Si    c    0.266851 *  0.866004 *  0.856319 *   4.00000    1.000000    
     65 Si    c    0.148334 *  0.918288 *  0.951986 *   4.00000    1.000000    
     66 Si    c    0.263370 *  0.552579 *  0.754052 *   4.00000    1.000000    
     67 Si    c    0.157241 *  0.924733 *  0.753708 *   4.00000    1.000000    
     68 Si    c    0.508970 *  0.931282 *  0.877387 *   4.00000    1.000000    
     69 Si    c    0.003005 *  0.510958 *  0.965619 *   4.00000    1.000000    
     70 O     c    0.346082 *  0.691007 *  0.851096 *   0.86902    1.000000    
     71 O     c    0.289132 *  0.592541 *  0.896958 *   0.86902    1.000000    
     72 O     c    0.327302 *  0.599050 *  0.792108 *   0.86902    1.000000    
     73 O     c    0.277485 *  0.798604 *  0.838631 *   0.86902    1.000000    
     74 O     c    0.174204 *  0.870440 *  0.906149 *   0.86902    1.000000    
     75 O     c    0.218436 *  0.905994 *  0.808755 *   0.86902    1.000000    
     76 O     c    0.337596 *  0.562471 *  0.995991 *   0.86902    1.000000    
     77 O     c    0.208239 *  0.979365 *  0.932633 *   0.86902    1.000000    
     78 O     c    0.121586 *  0.548441 *  0.952643 *   0.86902    1.000000    
     79 O     c    0.396914 *  0.887955 *  0.874755 *   0.86902    1.000000    
     80 O     c    0.337287 *  0.737298 *  0.754807 *   0.86902    1.000000    
     81 O     c    0.214243 *  0.985990 *  0.734760 *   0.86902    1.000000    
     82 O     c    0.119153 *  0.555459 *  0.762488 *   0.86902    1.000000    
     83 O     c    0.504875 *  0.604110 *  0.859104 *   0.86902    1.000000    
     84 O     c    0.506952 *  0.769876 *  0.821589 *   0.86902    1.000000    
     85 O     c    0.493578 *  0.987238 *  0.838857 *   0.86902    1.000000    
     86 O     c    0.520562 *  0.953328 *  0.938182 *   0.86902    1.000000    
     87 O     c    0.006378 *  0.926945 *  0.961582 *   0.86902    1.000000    
     88 Si    c    0.644081 *  0.215902 *  0.317281 *   4.00000    1.000000    
     89 Si    c    0.645779 *  0.344358 *  0.350355 *   4.00000    1.000000    
     90 Si    c    0.748420 *  0.420245 *  0.442720 *   4.00000    1.000000    
     91 Si    c    0.748915 *  0.099507 *  0.356726 *   4.00000    1.000000    
     92 Si    c    0.867420 *  0.045523 *  0.451304 *   4.00000    1.000000    
     93 Si    c    0.749857 *  0.413487 *  0.254661 *   4.00000    1.000000    
     94 Si    c    0.861815 *  0.043011 *  0.254143 *   4.00000    1.000000    
     95 Si    c    0.506833 *  0.035128 *  0.380304 *   4.00000    1.000000    
     96 Si    c    0.010301 *  0.454516 *  0.465658 *   4.00000    1.000000    
     97 O     c    0.665483 *  0.274640 *  0.351344 *   0.86902    1.000000    
     98 O     c    0.722423 *  0.373020 *  0.397434 *   0.86902    1.000000    
     99 O     c    0.685380 *  0.366943 *  0.292554 *   0.86902    1.000000    
    100 O     c    0.734849 *  0.167269 *  0.340588 *   0.86902    1.000000    
    101 O     c    0.846176 *  0.093306 *  0.404725 *   0.86902    1.000000    
    102 O     c    0.790584 *  0.061187 *  0.306880 *   0.86902    1.000000    
    103 O     c    0.676531 *  0.403536 *  0.496434 *   0.86902    1.000000    
    104 O     c    0.805064 *  0.984748 *  0.432617 *   0.86902    1.000000    
    105 O     c    0.891732 *  0.417228 *  0.452149 *   0.86902    1.000000    
    106 O     c    0.622734 *  0.075775 *  0.377729 *   0.86902    1.000000    
    107 O     c    0.675536 *  0.227144 *  0.255649 *   0.86902    1.000000    
    108 O     c    0.813082 *  0.980074 *  0.235215 *   0.86902    1.000000    
    109 O     c    0.894059 *  0.410175 *  0.263046 *   0.86902    1.000000    
    110 O     c    0.506984 *  0.361376 *  0.359082 *   0.86902    1.000000    
    111 O     c    0.504957 *  0.195139 *  0.322138 *   0.86902    1.000000    
    112 O     c    0.512196 *  0.981743 *  0.338537 *   0.86902    1.000000    
    113 O     c    0.498401 *  0.009793 *  0.439922 *   0.86902    1.000000    
    114 O     c    0.008761 *  0.034920 *  0.461676 *   0.86902    1.000000    
    115 Si    c    0.646029 *  0.749085 *  0.817283 *   4.00000    1.000000    
    116 Si    c    0.644396 *  0.618984 *  0.849383 *   4.00000    1.000000    
    117 Si    c    0.743673 *  0.547072 *  0.944207 *   4.00000    1.000000    
    118 Si    c    0.753473 *  0.864681 *  0.855910 *   4.00000    1.000000    
    119 Si    c    0.863391 *  0.921011 *  0.953011 *   4.00000    1.000000    
    120 O     c    0.666809 *  0.688184 *  0.847609 *   0.86902    1.000000    
    121 O     c    0.719938 *  0.593831 *  0.898393 *   0.86902    1.000000    
    122 O     c    0.684093 *  0.591152 *  0.793615 *   0.86902    1.000000    
    123 O     c    0.733081 *  0.796121 *  0.845214 *   0.86902    1.000000    
    124 O     c    0.831471 *  0.871404 *  0.909892 *   0.86902    1.000000    
    125 O     c    0.827551 *  0.893744 *  0.808609 *   0.86902    1.000000    
    126 O     c    0.668887 *  0.563341 *  0.997186 *   0.86902    1.000000    
    127 O     c    0.809999 *  0.982996 *  0.932382 *   0.86902    1.000000    
    128 O     c    0.886258 *  0.550966 *  0.955678 *   0.86902    1.000000    
    129 O     c    0.626339 *  0.896504 *  0.860028 *   0.86902    1.000000    
    130 Si    c    0.366064 *  0.216366 *  0.317054 *   4.00000    1.000000    
    131 Si    c    0.367599 *  0.346112 *  0.349485 *   4.00000    1.000000    
    132 Si    c    0.269474 *  0.418220 *  0.444227 *   4.00000    1.000000    
    133 Si    c    0.263627 *  0.100262 *  0.355785 *   4.00000    1.000000    
    134 Si    c    0.150802 *  0.043117 *  0.451381 *   4.00000    1.000000    
    135 O     c    0.345423 *  0.276811 *  0.348132 *   0.86902    1.000000    
    136 O     c    0.292039 *  0.371377 *  0.398407 *   0.86902    1.000000    
    137 O     c    0.327687 *  0.373560 *  0.293542 *   0.86902    1.000000    
    138 O     c    0.275890 *  0.168976 *  0.342891 *   0.86902    1.000000    
    139 O     c    0.173743 *  0.091713 *  0.405935 *   0.86902    1.000000    
    140 O     c    0.213909 *  0.065364 *  0.305491 *   0.86902    1.000000    
    141 O     c    0.345106 *  0.402016 *  0.497037 *   0.86902    1.000000    
    142 O     c    0.208213 *  0.981548 *  0.431782 *   0.86902    1.000000    
    143 O     c    0.127087 *  0.414415 *  0.456191 *   0.86902    1.000000    
    144 O     c    0.393538 *  0.075716 *  0.370025 *   0.86902    1.000000    
    145 Si    c    0.644556 *  0.226194 *  0.193117 *   4.00000    1.000000    
    146 Si    c    0.644168 *  0.353603 *  0.156936 *   4.00000    1.000000    
    147 Si    c    0.742147 *  0.414292 *  0.057886 *   4.00000    1.000000    
    148 Si    c    0.747289 *  0.107589 *  0.159703 *   4.00000    1.000000    
    149 Si    c    0.869779 *  0.045218 *  0.067385 *   4.00000    1.000000    
    150 O     c    0.686061 *  0.287249 *  0.167099 *   0.86902    1.000000    
    151 O     c    0.669001 *  0.370263 *  0.095734 *   0.86902    1.000000    
    152 O     c    0.719832 *  0.398054 *  0.193638 *   0.86902    1.000000    
    153 O     c    0.721963 *  0.176471 *  0.163732 *   0.86902    1.000000    
    154 O     c    0.813446 *  0.095984 *  0.103762 *   0.86902    1.000000    
    155 O     c    0.836413 *  0.088925 *  0.207292 *   0.86902    1.000000    
    156 O     c    0.706778 *  0.398745 *  0.997530 *   0.86902    1.000000    
    157 O     c    0.807861 *  0.983632 *  0.082981 *   0.86902    1.000000    
    158 O     c    0.885551 *  0.404331 *  0.066095 *   0.86902    1.000000    
    159 O     c    0.622738 *  0.072608 *  0.161784 *   0.86902    1.000000    
    160 Si    c    0.369663 *  0.739447 *  0.692422 *   4.00000    1.000000    
    161 Si    c    0.369478 *  0.612406 *  0.656159 *   4.00000    1.000000    
    162 Si    c    0.271027 *  0.550965 *  0.557636 *   4.00000    1.000000    
    163 Si    c    0.271167 *  0.859141 *  0.660184 *   4.00000    1.000000    
    164 Si    c    0.146170 *  0.921351 *  0.567648 *   4.00000    1.000000    
    165 O     c    0.327826 *  0.678957 *  0.665424 *   0.86902    1.000000    
    166 O     c    0.345013 *  0.595030 *  0.595099 *   0.86902    1.000000    
    167 O     c    0.293119 *  0.568414 *  0.693085 *   0.86902    1.000000    
    168 O     c    0.294319 *  0.790006 *  0.663195 *   0.86902    1.000000    
    169 O     c    0.205654 *  0.871820 *  0.604374 *   0.86902    1.000000    
    170 O     c    0.183501 *  0.877019 *  0.708509 *   0.86902    1.000000    
    171 O     c    0.305144 *  0.566445 *  0.497089 *   0.86902    1.000000    
    172 O     c    0.205948 *  0.983755 *  0.581693 *   0.86902    1.000000    
    173 O     c    0.127724 *  0.560751 *  0.566353 *   0.86902    1.000000    
    174 O     c    0.396444 *  0.893365 *  0.663140 *   0.86902    1.000000    
    175 Si    c    0.867644 *  0.714758 *  0.191866 *   4.00000    1.000000    
    176 Si    c    0.869458 *  0.843629 *  0.162774 *   4.00000    1.000000    
    177 Si    c    0.770577 *  0.917110 *  0.069388 *   4.00000    1.000000    
    178 Si    c    0.769376 *  0.597130 *  0.153010 *   4.00000    1.000000    
    179 Si    c    0.645135 *  0.543278 *  0.057827 *   4.00000    1.000000    
    180 Si    c    0.766058 *  0.917179 *  0.255293 *   4.00000    1.000000    
    181 Si    c    0.661043 *  0.543186 *  0.255543 *   4.00000    1.000000    
    182 Si    c    0.008275 *  0.528129 *  0.167155 *   4.00000    1.000000    
    183 Si    c    0.505496 *  0.947378 *  0.082826 *   4.00000    1.000000    
    184 Si    c    0.510232 *  0.959696 *  0.277752 *   4.00000    1.000000    
    185 O     c    0.843318 *  0.774404 *  0.159228 *   0.86902    1.000000    
    186 O     c    0.843947 *  0.871541 *  0.105307 *   0.86902    1.000000    
    187 O     c    0.784556 *  0.871734 *  0.207558 *   0.86902    1.000000    
    188 O     c    0.779564 *  0.665350 *  0.168090 *   0.86902    1.000000    
    189 O     c    0.700531 *  0.592393 *  0.096632 *   0.86902    1.000000    
    190 O     c    0.690207 *  0.560724 *  0.195145 *   0.86902    1.000000    
    191 O     c    0.800787 *  0.902628 *  0.008273 *   0.86902    1.000000    
    192 O     c    0.709506 *  0.481585 *  0.070680 *   0.86902    1.000000    
    193 O     c    0.627547 *  0.908854 *  0.080213 *   0.86902    1.000000    
    194 O     c    0.902599 *  0.570524 *  0.147850 *   0.86902    1.000000    
    195 O     c    0.834679 *  0.725390 *  0.253322 *   0.86902    1.000000    
    196 O     c    0.702741 *  0.477847 *  0.268659 *   0.86902    1.000000    
    197 O     c    0.623981 *  0.917317 *  0.268454 *   0.86902    1.000000    
    198 O     c    0.008283 *  0.854892 *  0.179624 *   0.86902    1.000000    
    199 O     c    0.006878 *  0.694718 *  0.185949 *   0.86902    1.000000    
    200 O     c    0.986051 *  0.509441 *  0.228381 *   0.86902    1.000000    
    201 O     c    0.013024 *  0.470726 *  0.130515 *   0.86902    1.000000    
    202 O     c    0.503327 *  0.536346 *  0.067388 *   0.86902    1.000000    
    203 O     c    0.519749 *  0.547978 *  0.267070 *   0.86902    1.000000    
    204 O     c    0.006006 *  0.494437 *  0.027750 *   0.86902    1.000000    
    205 Si    c    0.145594 *  0.250826 *  0.691749 *   4.00000    1.000000    
    206 Si    c    0.145497 *  0.122671 *  0.660384 *   4.00000    1.000000    
    207 Si    c    0.245218 *  0.049711 *  0.567076 *   4.00000    1.000000    
    208 Si    c    0.243947 *  0.368713 *  0.653018 *   4.00000    1.000000    
    209 Si    c    0.368473 *  0.422018 *  0.557723 *   4.00000    1.000000    
    210 Si    c    0.251139 *  0.050773 *  0.753699 *   4.00000    1.000000    
    211 Si    c    0.352582 *  0.422899 *  0.755195 *   4.00000    1.000000    
    212 Si    c    0.004481 *  0.437266 *  0.667299 *   4.00000    1.000000    
    213 Si    c    0.509824 *  0.017805 *  0.582091 *   4.00000    1.000000    
    214 Si    c    0.503899 *  0.009885 *  0.778221 *   4.00000    1.000000    
    215 O     c    0.169443 *  0.192092 *  0.657845 *   0.86902    1.000000    
    216 O     c    0.173090 *  0.096208 *  0.602538 *   0.86902    1.000000    
    217 O     c    0.231128 *  0.094372 *  0.704733 *   0.86902    1.000000    
    218 O     c    0.233409 *  0.300680 *  0.668620 *   0.86902    1.000000    
    219 O     c    0.312465 *  0.372990 *  0.596518 *   0.86902    1.000000    
    220 O     c    0.323721 *  0.405246 *  0.694807 *   0.86902    1.000000    
    221 O     c    0.215013 *  0.063814 *  0.505724 *   0.86902    1.000000    
    222 O     c    0.304128 *  0.483728 *  0.570408 *   0.86902    1.000000    
    223 O     c    0.388476 *  0.056685 *  0.577792 *   0.86902    1.000000    
    224 O     c    0.110921 *  0.395486 *  0.647796 *   0.86902    1.000000    
    225 O     c    0.179454 *  0.238792 *  0.752955 *   0.86902    1.000000    
    226 O     c    0.311736 *  0.488400 *  0.767898 *   0.86902    1.000000    
    227 O     c    0.392838 *  0.053738 *  0.767749 *   0.86902    1.000000    
    228 O     c    0.007236 *  0.109814 *  0.677107 *   0.86902    1.000000    
    229 O     c    0.006086 *  0.270607 *  0.686490 *   0.86902    1.000000    
    230 O     c    0.026738 *  0.456167 *  0.728425 *   0.86902    1.000000    
    231 O     c    0.998317 *  0.494576 *  0.630505 *   0.86902    1.000000    
    232 O     c    0.510168 *  0.428836 *  0.567601 *   0.86902    1.000000    
    233 O     c    0.493673 *  0.417645 *  0.767074 *   0.86902    1.000000    
    234 O     c    0.006363 *  0.470962 *  0.527775 *   0.86902    1.000000    
    235 Si    c    0.867818 *  0.240249 *  0.817099 *   4.00000    1.000000    
    236 Si    c    0.867323 *  0.112744 *  0.854691 *   4.00000    1.000000    
    237 Si    c    0.771270 *  0.047530 *  0.953028 *   4.00000    1.000000    
    238 Si    c    0.764289 *  0.357933 *  0.849205 *   4.00000    1.000000    
    239 Si    c    0.648175 *  0.420721 *  0.942512 *   4.00000    1.000000    
    240 Si    c    0.766211 *  0.046441 *  0.756433 *   4.00000    1.000000    
    241 Si    c    0.634650 *  0.417231 *  0.754314 *   4.00000    1.000000    
    242 Si    c    0.005339 *  0.428098 *  0.870000 *   4.00000    1.000000    
    243 Si    c    0.511286 *  0.011761 *  0.974094 *   4.00000    1.000000    
    244 O     c    0.823774 *  0.177334 *  0.838093 *   0.86902    1.000000    
    245 O     c    0.797219 *  0.095231 *  0.908085 *   0.86902    1.000000    
    246 O     c    0.841421 *  0.067638 *  0.807266 *   0.86902    1.000000    
    247 O     c    0.796483 *  0.289331 *  0.850549 *   0.86902    1.000000    
    248 O     c    0.674767 *  0.371900 *  0.898146 *   0.86902    1.000000    
    249 O     c    0.699420 *  0.372104 *  0.793765 *   0.86902    1.000000    
    250 O     c    0.846533 *  0.062437 *  0.006150 *   0.86902    1.000000    
    251 O     c    0.706343 *  0.482315 *  0.923924 *   0.86902    1.000000    
    252 O     c    0.628559 *  0.051726 *  0.964700 *   0.86902    1.000000    
    253 O     c    0.884341 *  0.396090 *  0.852660 *   0.86902    1.000000    
    254 O     c    0.833928 *  0.245355 *  0.755164 *   0.86902    1.000000    
    255 O     c    0.687454 *  0.481498 *  0.764034 *   0.86902    1.000000    
    256 O     c    0.624673 *  0.047562 *  0.770327 *   0.86902    1.000000    
    257 O     c    0.008154 *  0.110629 *  0.867460 *   0.86902    1.000000    
    258 O     c    0.010151 *  0.248520 *  0.826001 *   0.86902    1.000000    
    259 O     c    0.026765 *  0.482500 *  0.830415 *   0.86902    1.000000    
    260 O     c    0.995370 *  0.452081 *  0.930168 *   0.86902    1.000000    
    261 O     c    0.505950 *  0.429859 *  0.950452 *   0.86902    1.000000    
    262 Si    c    0.147004 *  0.725427 *  0.316584 *   4.00000    1.000000    
    263 Si    c    0.149656 *  0.852553 *  0.354754 *   4.00000    1.000000    
    264 Si    c    0.244647 *  0.916959 *  0.453345 *   4.00000    1.000000    
    265 Si    c    0.249238 *  0.607530 *  0.348823 *   4.00000    1.000000    
    266 Si    c    0.364723 *  0.544534 *  0.442274 *   4.00000    1.000000    
    267 Si    c    0.248950 *  0.918705 *  0.255816 *   4.00000    1.000000    
    268 Si    c    0.378854 *  0.547809 *  0.254191 *   4.00000    1.000000    
    269 Si    c    0.008039 *  0.537545 *  0.370104 *   4.00000    1.000000    
    270 Si    c    0.505259 *  0.951133 *  0.475257 *   4.00000    1.000000    
    271 O     c    0.192542 *  0.788159 *  0.337338 *   0.86902    1.000000    
    272 O     c    0.217358 *  0.868624 *  0.409150 *   0.86902    1.000000    
    273 O     c    0.179798 *  0.898846 *  0.308772 *   0.86902    1.000000    
    274 O     c    0.218836 *  0.676296 *  0.349805 *   0.86902    1.000000    
    275 O     c    0.338770 *  0.593268 *  0.397697 *   0.86902    1.000000    
    276 O     c    0.313064 *  0.592862 *  0.293290 *   0.86902    1.000000    
    277 O     c    0.168231 *  0.903457 *  0.506488 *   0.86902    1.000000    
    278 O     c    0.306935 *  0.482884 *  0.423634 *   0.86902    1.000000    
    279 O     c    0.387205 *  0.911862 *  0.465269 *   0.86902    1.000000    
    280 O     c    0.128121 *  0.570245 *  0.352618 *   0.86902    1.000000    
    281 O     c    0.178997 *  0.720441 *  0.254476 *   0.86902    1.000000    
    282 O     c    0.327133 *  0.483383 *  0.264334 *   0.86902    1.000000    
    283 O     c    0.391235 *  0.921562 *  0.267398 *   0.86902    1.000000    
    284 O     c    0.008440 *  0.854819 *  0.366277 *   0.86902    1.000000    
    285 O     c    0.004850 *  0.717352 *  0.326294 *   0.86902    1.000000    
    286 O     c    0.987368 *  0.483192 *  0.330486 *   0.86902    1.000000    
    287 O     c    0.019100 *  0.513416 *  0.430216 *   0.86902    1.000000    
    288 O     c    0.506905 *  0.535582 *  0.450592 *   0.86902    1.000000    
    289 Si    c    0.151390 *  0.237710 *  0.815660 *   4.00000    1.000000    
    290 Si    c    0.148703 *  0.111044 *  0.853942 *   4.00000    1.000000    
    291 Si    c    0.247862 *  0.044265 *  0.951487 *   4.00000    1.000000    
    292 Si    c    0.241239 *  0.356345 *  0.850994 *   4.00000    1.000000    
    293 Si    c    0.364591 *  0.419350 *  0.941542 *   4.00000    1.000000    
    294 O     c    0.194544 *  0.175589 *  0.838577 *   0.86902    1.000000    
    295 O     c    0.219377 *  0.091298 *  0.906392 *   0.86902    1.000000    
    296 O     c    0.171828 *  0.067524 *  0.804908 *   0.86902    1.000000    
    297 O     c    0.228959 *  0.286476 *  0.846626 *   0.86902    1.000000    
    298 O     c    0.342132 *  0.371947 *  0.895214 *   0.86902    1.000000    
    299 O     c    0.278279 *  0.379989 *  0.793300 *   0.86902    1.000000    
    300 O     c    0.175950 *  0.060667 *  0.005163 *   0.86902    1.000000    
    301 O     c    0.302759 *  0.480425 *  0.923461 *   0.86902    1.000000    
    302 O     c    0.391327 *  0.048091 *  0.960692 *   0.86902    1.000000    
    303 O     c    0.113623 *  0.382429 *  0.868626 *   0.86902    1.000000    
    304 Si    c    0.863502 *  0.727793 *  0.315871 *   4.00000    1.000000    
    305 Si    c    0.867256 *  0.854335 *  0.354608 *   4.00000    1.000000    
    306 Si    c    0.768392 *  0.919709 *  0.452512 *   4.00000    1.000000    
    307 Si    c    0.771939 *  0.609558 *  0.351445 *   4.00000    1.000000    
    308 Si    c    0.648248 *  0.546304 *  0.441763 *   4.00000    1.000000    
    309 O     c    0.820679 *  0.790390 *  0.337778 *   0.86902    1.000000    
    310 O     c    0.799387 *  0.871981 *  0.408397 *   0.86902    1.000000    
    311 O     c    0.840716 *  0.900049 *  0.307660 *   0.86902    1.000000    
    312 O     c    0.786133 *  0.679417 *  0.347569 *   0.86902    1.000000    
    313 O     c    0.670768 *  0.593976 *  0.395582 *   0.86902    1.000000    
    314 O     c    0.734082 *  0.586581 *  0.293635 *   0.86902    1.000000    
    315 O     c    0.841314 *  0.905007 *  0.506270 *   0.86902    1.000000    
    316 O     c    0.710295 *  0.485334 *  0.423566 *   0.86902    1.000000    
    317 O     c    0.625018 *  0.914479 *  0.461949 *   0.86902    1.000000    
    318 O     c    0.898852 *  0.582650 *  0.368970 *   0.86902    1.000000    
    319 Si    c    0.146585 *  0.713696 *  0.192511 *   4.00000    1.000000    
    320 Si    c    0.147571 *  0.843453 *  0.163650 *   4.00000    1.000000    
    321 Si    c    0.245237 *  0.912934 *  0.067113 *   4.00000    1.000000    
    322 Si    c    0.254839 *  0.597036 *  0.155487 *   4.00000    1.000000    
    323 Si    c    0.361730 *  0.541875 *  0.056488 *   4.00000    1.000000    
    324 O     c    0.173993 *  0.774335 *  0.162281 *   0.86902    1.000000    
    325 O     c    0.174447 *  0.868753 *  0.105313 *   0.86902    1.000000    
    326 O     c    0.231470 *  0.873458 *  0.207772 *   0.86902    1.000000    
    327 O     c    0.233226 *  0.665518 *  0.165994 *   0.86902    1.000000    
    328 O     c    0.302335 *  0.589869 *  0.095280 *   0.86902    1.000000    
    329 O     c    0.356828 *  0.570081 *  0.194221 *   0.86902    1.000000    
    330 O     c    0.209518 *  0.896783 *  0.006781 *   0.86902    1.000000    
    331 O     c    0.300010 *  0.479462 *  0.068198 *   0.86902    1.000000    
    332 O     c    0.389500 *  0.905223 *  0.075254 *   0.86902    1.000000    
    333 O     c    0.133147 *  0.561843 *  0.165503 *   0.86902    1.000000    
    334 Si    c    0.866548 *  0.251348 *  0.693148 *   4.00000    1.000000    
    335 Si    c    0.867159 *  0.121326 *  0.662849 *   4.00000    1.000000    
    336 Si    c    0.770022 *  0.052970 *  0.566053 *   4.00000    1.000000    
    337 Si    c    0.758598 *  0.367849 *  0.655740 *   4.00000    1.000000    
    338 Si    c    0.651919 *  0.423838 *  0.556913 *   4.00000    1.000000    
    339 O     c    0.839193 *  0.190260 *  0.663871 *   0.86902    1.000000    
    340 O     c    0.838224 *  0.098469 *  0.603877 *   0.86902    1.000000    
    341 O     c    0.785535 *  0.088291 *  0.705997 *   0.86902    1.000000    
    342 O     c    0.779928 *  0.299231 *  0.665990 *   0.86902    1.000000    
    343 O     c    0.711585 *  0.375669 *  0.595520 *   0.86902    1.000000    
    344 O     c    0.656458 *  0.394545 *  0.694494 *   0.86902    1.000000    
    345 O     c    0.806653 *  0.068480 *  0.505656 *   0.86902    1.000000    
    346 O     c    0.712609 *  0.486420 *  0.568975 *   0.86902    1.000000    
    347 O     c    0.625507 *  0.059783 *  0.573271 *   0.86902    1.000000    
    348 O     c    0.880500    0.402760    0.666120     0.86902    1.000000    
    349 O     s    0.320299 *  0.288166 *  0.168934 *  -2.86902    1.000000    
    350 O     s    0.338503 *  0.369046 *  0.095968 *  -2.86902    1.000000    
    351 O     s    0.289619 *  0.400052 *  0.193918 *  -2.86902    1.000000    
    352 O     s    0.283421 *  0.176980 *  0.163124 *  -2.86902    1.000000    
    353 O     s    0.216159 *  0.091701 *  0.102395 *  -2.86902    1.000000    
    354 O     s    0.165863 *  0.087764 *  0.204537 *  -2.86902    1.000000    
    355 O     s    0.306560 *  0.395494 *  0.996206 *  -2.86902    1.000000    
    356 O     s    0.210294 *  0.979874 *  0.080134 *  -2.86902    1.000000    
    357 O     s    0.124051 *  0.402315 *  0.062877 *  -2.86902    1.000000    
    358 O     s    0.390752 *  0.076491 *  0.173310 *  -2.86902    1.000000    
    359 O     s    0.331341 *  0.224894 *  0.255540 *  -2.86902    1.000000    
    360 O     s    0.195765 *  0.980767 *  0.236916 *  -2.86902    1.000000    
    361 O     s    0.125523 *  0.422716 *  0.264897 *  -2.86902    1.000000    
    362 O     s    0.503893 *  0.361375 *  0.171309 *  -2.86902    1.000000    
    363 O     s    0.503276 *  0.214719 *  0.183011 *  -2.86902    1.000000    
    364 O     s    0.517115 *  0.015672 *  0.238575 *  -2.86902    1.000000    
    365 O     s    0.494984 *  0.978920 *  0.139887 *  -2.86902    1.000000    
    366 O     s    0.011400 *  0.039774 *  0.078374 *  -2.86902    1.000000    
    367 O     s    0.003158 *  0.040599 *  0.266711 *  -2.86902    1.000000    
    368 O     s    0.507469 *  0.995619 *  0.036266 *  -2.86902    1.000000    
    369 O     s    0.694476 *  0.677718 *  0.669716 *  -2.86902    1.000000    
    370 O     s    0.675861 *  0.597265 *  0.596169 *  -2.86902    1.000000    
    371 O     s    0.723288 *  0.565518 *  0.694025 *  -2.86902    1.000000    
    372 O     s    0.729385 *  0.789563 *  0.663232 *  -2.86902    1.000000    
    373 O     s    0.798366 *  0.875110 *  0.603513 *  -2.86902    1.000000    
    374 O     s    0.851229 *  0.876868 *  0.705571 *  -2.86902    1.000000    
    375 O     s    0.705892 *  0.570015 *  0.496506 *  -2.86902    1.000000    
    376 O     s    0.807291 *  0.986627 *  0.580392 *  -2.86902    1.000000    
    377 O     s    0.889236 *  0.563295 *  0.562658 *  -2.86902    1.000000    
    378 O     s    0.627112 *  0.891642 *  0.675802 *  -2.86902    1.000000    
    379 O     s    0.683432 *  0.742056 *  0.755888 *  -2.86902    1.000000    
    380 O     s    0.807344 *  0.981500 *  0.740650 *  -2.86902    1.000000    
    381 O     s    0.887656 *  0.543021 *  0.765092 *  -2.86902    1.000000    
    382 O     s    0.509630 *  0.604885 *  0.670988 *  -2.86902    1.000000    
    383 O     s    0.511192 *  0.750640 *  0.683231 *  -2.86902    1.000000    
    384 O     s    0.498243 *  0.953876 *  0.739067 *  -2.86902    1.000000    
    385 O     s    0.520206 *  0.988227 *  0.640068 *  -2.86902    1.000000    
    386 O     s    0.004858 *  0.925452 *  0.579835 *  -2.86902    1.000000    
    387 O     s    0.015531 *  0.932619 *  0.761391 *  -2.86902    1.000000    
    388 O     s    0.508306 *  0.967313 *  0.537493 *  -2.86902    1.000000    
    389 O     s    0.346082 *  0.691007 *  0.851096 *  -2.86902    1.000000    
    390 O     s    0.289132 *  0.592541 *  0.896958 *  -2.86902    1.000000    
    391 O     s    0.327302 *  0.599050 *  0.792108 *  -2.86902    1.000000    
    392 O     s    0.277485 *  0.798604 *  0.838631 *  -2.86902    1.000000    
    393 O     s    0.174204 *  0.870440 *  0.906149 *  -2.86902    1.000000    
    394 O     s    0.218436 *  0.905994 *  0.808755 *  -2.86902    1.000000    
    395 O     s    0.337596 *  0.562471 *  0.995991 *  -2.86902    1.000000    
    396 O     s    0.208239 *  0.979365 *  0.932633 *  -2.86902    1.000000    
    397 O     s    0.121586 *  0.548441 *  0.952643 *  -2.86902    1.000000    
    398 O     s    0.396914 *  0.887955 *  0.874755 *  -2.86902    1.000000    
    399 O     s    0.337287 *  0.737298 *  0.754807 *  -2.86902    1.000000    
    400 O     s    0.214243 *  0.985990 *  0.734760 *  -2.86902    1.000000    
    401 O     s    0.119153 *  0.555459 *  0.762488 *  -2.86902    1.000000    
    402 O     s    0.504875 *  0.604110 *  0.859104 *  -2.86902    1.000000    
    403 O     s    0.506952 *  0.769876 *  0.821589 *  -2.86902    1.000000    
    404 O     s    0.493578 *  0.987238 *  0.838857 *  -2.86902    1.000000    
    405 O     s    0.520562 *  0.953328 *  0.938182 *  -2.86902    1.000000    
    406 O     s    0.006378 *  0.926945 *  0.961582 *  -2.86902    1.000000    
    407 O     s    0.665483 *  0.274640 *  0.351344 *  -2.86902    1.000000    
    408 O     s    0.722423 *  0.373020 *  0.397434 *  -2.86902    1.000000    
    409 O     s    0.685380 *  0.366943 *  0.292554 *  -2.86902    1.000000    
    410 O     s    0.734849 *  0.167269 *  0.340588 *  -2.86902    1.000000    
    411 O     s    0.846176 *  0.093306 *  0.404725 *  -2.86902    1.000000    
    412 O     s    0.790584 *  0.061187 *  0.306880 *  -2.86902    1.000000    
    413 O     s    0.676531 *  0.403536 *  0.496434 *  -2.86902    1.000000    
    414 O     s    0.805064 *  0.984748 *  0.432617 *  -2.86902    1.000000    
    415 O     s    0.891732 *  0.417228 *  0.452149 *  -2.86902    1.000000    
    416 O     s    0.622734 *  0.075775 *  0.377729 *  -2.86902    1.000000    
    417 O     s    0.675536 *  0.227144 *  0.255649 *  -2.86902    1.000000    
    418 O     s    0.813082 *  0.980074 *  0.235215 *  -2.86902    1.000000    
    419 O     s    0.894059 *  0.410175 *  0.263046 *  -2.86902    1.000000    
    420 O     s    0.506984 *  0.361376 *  0.359082 *  -2.86902    1.000000    
    421 O     s    0.504957 *  0.195139 *  0.322138 *  -2.86902    1.000000    
    422 O     s    0.512196 *  0.981743 *  0.338537 *  -2.86902    1.000000    
    423 O     s    0.498401 *  0.009793 *  0.439922 *  -2.86902    1.000000    
    424 O     s    0.008761 *  0.034920 *  0.461676 *  -2.86902    1.000000    
    425 O     s    0.666809 *  0.688184 *  0.847609 *  -2.86902    1.000000    
    426 O     s    0.719938 *  0.593831 *  0.898393 *  -2.86902    1.000000    
    427 O     s    0.684093 *  0.591152 *  0.793615 *  -2.86902    1.000000    
    428 O     s    0.733081 *  0.796121 *  0.845214 *  -2.86902    1.000000    
    429 O     s    0.831471 *  0.871404 *  0.909892 *  -2.86902    1.000000    
    430 O     s    0.827551 *  0.893744 *  0.808609 *  -2.86902    1.000000    
    431 O     s    0.668887 *  0.563341 *  0.997186 *  -2.86902    1.000000    
    432 O     s    0.809999 *  0.982996 *  0.932382 *  -2.86902    1.000000    
    433 O     s    0.886258 *  0.550966 *  0.955678 *  -2.86902    1.000000    
    434 O     s    0.626339 *  0.896504 *  0.860028 *  -2.86902    1.000000    
    435 O     s    0.345423 *  0.276811 *  0.348132 *  -2.86902    1.000000    
    436 O     s    0.292039 *  0.371377 *  0.398407 *  -2.86902    1.000000    
    437 O     s    0.327687 *  0.373560 *  0.293542 *  -2.86902    1.000000    
    438 O     s    0.275890 *  0.168976 *  0.342891 *  -2.86902    1.000000    
    439 O     s    0.173743 *  0.091713 *  0.405935 *  -2.86902    1.000000    
    440 O     s    0.213909 *  0.065364 *  0.305491 *  -2.86902    1.000000    
    441 O     s    0.345106 *  0.402016 *  0.497037 *  -2.86902    1.000000    
    442 O     s    0.208213 *  0.981548 *  0.431782 *  -2.86902    1.000000    
    443 O     s    0.127087 *  0.414415 *  0.456191 *  -2.86902    1.000000    
    444 O     s    0.393538 *  0.075716 *  0.370025 *  -2.86902    1.000000    
    445 O     s    0.686061 *  0.287249 *  0.167099 *  -2.86902    1.000000    
    446 O     s    0.669001 *  0.370263 *  0.095734 *  -2.86902    1.000000    
    447 O     s    0.719832 *  0.398054 *  0.193638 *  -2.86902    1.000000    
    448 O     s    0.721963 *  0.176471 *  0.163732 *  -2.86902    1.000000    
    449 O     s    0.813446 *  0.095984 *  0.103762 *  -2.86902    1.000000    
    450 O     s    0.836413 *  0.088925 *  0.207292 *  -2.86902    1.000000    
    451 O     s    0.706778 *  0.398745 *  0.997530 *  -2.86902    1.000000    
    452 O     s    0.807861 *  0.983632 *  0.082981 *  -2.86902    1.000000    
    453 O     s    0.885551 *  0.404331 *  0.066095 *  -2.86902    1.000000    
    454 O     s    0.622738 *  0.072608 *  0.161784 *  -2.86902    1.000000    
    455 O     s    0.327826 *  0.678957 *  0.665424 *  -2.86902    1.000000    
    456 O     s    0.345013 *  0.595030 *  0.595099 *  -2.86902    1.000000    
    457 O     s    0.293119 *  0.568414 *  0.693085 *  -2.86902    1.000000    
    458 O     s    0.294319 *  0.790006 *  0.663195 *  -2.86902    1.000000    
    459 O     s    0.205654 *  0.871820 *  0.604374 *  -2.86902    1.000000    
    460 O     s    0.183501 *  0.877019 *  0.708509 *  -2.86902    1.000000    
    461 O     s    0.305144 *  0.566445 *  0.497089 *  -2.86902    1.000000    
    462 O     s    0.205948 *  0.983755 *  0.581693 *  -2.86902    1.000000    
    463 O     s    0.127724 *  0.560751 *  0.566353 *  -2.86902    1.000000    
    464 O     s    0.396444 *  0.893365 *  0.663140 *  -2.86902    1.000000    
    465 O     s    0.843318 *  0.774404 *  0.159228 *  -2.86902    1.000000    
    466 O     s    0.843947 *  0.871541 *  0.105307 *  -2.86902    1.000000    
    467 O     s    0.784556 *  0.871734 *  0.207558 *  -2.86902    1.000000    
    468 O     s    0.779564 *  0.665350 *  0.168090 *  -2.86902    1.000000    
    469 O     s    0.700531 *  0.592393 *  0.096632 *  -2.86902    1.000000    
    470 O     s    0.690207 *  0.560724 *  0.195145 *  -2.86902    1.000000    
    471 O     s    0.800787 *  0.902628 *  0.008273 *  -2.86902    1.000000    
    472 O     s    0.709506 *  0.481585 *  0.070680 *  -2.86902    1.000000    
    473 O     s    0.627547 *  0.908854 *  0.080213 *  -2.86902    1.000000    
    474 O     s    0.902599 *  0.570524 *  0.147850 *  -2.86902    1.000000    
    475 O     s    0.834679 *  0.725390 *  0.253322 *  -2.86902    1.000000    
    476 O     s    0.702741 *  0.477847 *  0.268659 *  -2.86902    1.000000    
    477 O     s    0.623981 *  0.917317 *  0.268454 *  -2.86902    1.000000    
    478 O     s    0.008283 *  0.854892 *  0.179624 *  -2.86902    1.000000    
    479 O     s    0.006878 *  0.694718 *  0.185949 *  -2.86902    1.000000    
    480 O     s    0.986051 *  0.509441 *  0.228381 *  -2.86902    1.000000    
    481 O     s    0.013024 *  0.470726 *  0.130515 *  -2.86902    1.000000    
    482 O     s    0.503327 *  0.536346 *  0.067388 *  -2.86902    1.000000    
    483 O     s    0.519749 *  0.547978 *  0.267070 *  -2.86902    1.000000    
    484 O     s    0.006006 *  0.494437 *  0.027750 *  -2.86902    1.000000    
    485 O     s    0.169443 *  0.192092 *  0.657845 *  -2.86902    1.000000    
    486 O     s    0.173090 *  0.096208 *  0.602538 *  -2.86902    1.000000    
    487 O     s    0.231128 *  0.094372 *  0.704733 *  -2.86902    1.000000    
    488 O     s    0.233409 *  0.300680 *  0.668620 *  -2.86902    1.000000    
    489 O     s    0.312465 *  0.372990 *  0.596518 *  -2.86902    1.000000    
    490 O     s    0.323721 *  0.405246 *  0.694807 *  -2.86902    1.000000    
    491 O     s    0.215013 *  0.063814 *  0.505724 *  -2.86902    1.000000    
    492 O     s    0.304128 *  0.483728 *  0.570408 *  -2.86902    1.000000    
    493 O     s    0.388476 *  0.056685 *  0.577792 *  -2.86902    1.000000    
    494 O     s    0.110921 *  0.395486 *  0.647796 *  -2.86902    1.000000    
    495 O     s    0.179454 *  0.238792 *  0.752955 *  -2.86902    1.000000    
    496 O     s    0.311736 *  0.488400 *  0.767898 *  -2.86902    1.000000    
    497 O     s    0.392838 *  0.053738 *  0.767749 *  -2.86902    1.000000    
    498 O     s    0.007236 *  0.109814 *  0.677107 *  -2.86902    1.000000    
    499 O     s    0.006086 *  0.270607 *  0.686490 *  -2.86902    1.000000    
    500 O     s    0.026738 *  0.456167 *  0.728425 *  -2.86902    1.000000    
    501 O     s    0.998317 *  0.494576 *  0.630505 *  -2.86902    1.000000    
    502 O     s    0.510168 *  0.428836 *  0.567601 *  -2.86902    1.000000    
    503 O     s    0.493673 *  0.417645 *  0.767074 *  -2.86902    1.000000    
    504 O     s    0.006363 *  0.470962 *  0.527775 *  -2.86902    1.000000    
    505 O     s    0.823774 *  0.177334 *  0.838093 *  -2.86902    1.000000    
    506 O     s    0.797219 *  0.095231 *  0.908085 *  -2.86902    1.000000    
    507 O     s    0.841421 *  0.067638 *  0.807266 *  -2.86902    1.000000    
    508 O     s    0.796483 *  0.289331 *  0.850549 *  -2.86902    1.000000    
    509 O     s    0.674767 *  0.371900 *  0.898146 *  -2.86902    1.000000    
    510 O     s    0.699420 *  0.372104 *  0.793765 *  -2.86902    1.000000    
    511 O     s    0.846533 *  0.062437 *  0.006150 *  -2.86902    1.000000    
    512 O     s    0.706343 *  0.482315 *  0.923924 *  -2.86902    1.000000    
    513 O     s    0.628559 *  0.051726 *  0.964700 *  -2.86902    1.000000    
    514 O     s    0.884341 *  0.396090 *  0.852660 *  -2.86902    1.000000    
    515 O     s    0.833928 *  0.245355 *  0.755164 *  -2.86902    1.000000    
    516 O     s    0.687454 *  0.481498 *  0.764034 *  -2.86902    1.000000    
    517 O     s    0.624673 *  0.047562 *  0.770327 *  -2.86902    1.000000    
    518 O     s    0.008154 *  0.110629 *  0.867460 *  -2.86902    1.000000    
    519 O     s    0.010151 *  0.248520 *  0.826001 *  -2.86902    1.000000    
    520 O     s    0.026765 *  0.482500 *  0.830415 *  -2.86902    1.000000    
    521 O     s    0.995370 *  0.452081 *  0.930168 *  -2.86902    1.000000    
    522 O     s    0.505950 *  0.429859 *  0.950452 *  -2.86902    1.000000    
    523 O     s    0.192542 *  0.788159 *  0.337338 *  -2.86902    1.000000    
    524 O     s    0.217358 *  0.868624 *  0.409150 *  -2.86902    1.000000    
    525 O     s    0.179798 *  0.898846 *  0.308772 *  -2.86902    1.000000    
    526 O     s    0.218836 *  0.676296 *  0.349805 *  -2.86902    1.000000    
    527 O     s    0.338770 *  0.593268 *  0.397697 *  -2.86902    1.000000    
    528 O     s    0.313064 *  0.592862 *  0.293290 *  -2.86902    1.000000    
    529 O     s    0.168231 *  0.903457 *  0.506488 *  -2.86902    1.000000    
    530 O     s    0.306935 *  0.482884 *  0.423634 *  -2.86902    1.000000    
    531 O     s    0.387205 *  0.911862 *  0.465269 *  -2.86902    1.000000    
    532 O     s    0.128121 *  0.570245 *  0.352618 *  -2.86902    1.000000    
    533 O     s    0.178997 *  0.720441 *  0.254476 *  -2.86902    1.000000    
    534 O     s    0.327133 *  0.483383 *  0.264334 *  -2.86902    1.000000    
    535 O     s    0.391235 *  0.921562 *  0.267398 *  -2.86902    1.000000    
    536 O     s    0.008440 *  0.854819 *  0.366277 *  -2.86902    1.000000    
    537 O     s    0.004850 *  0.717352 *  0.326294 *  -2.86902    1.000000    
    538 O     s    0.987368 *  0.483192 *  0.330486 *  -2.86902    1.000000    
    539 O     s    0.019100 *  0.513416 *  0.430216 *  -2.86902    1.000000    
    540 O     s    0.506905 *  0.535582 *  0.450592 *  -2.86902    1.000000    
    541 O     s    0.194544 *  0.175589 *  0.838577 *  -2.86902    1.000000    
    542 O     s    0.219377 *  0.091298 *  0.906392 *  -2.86902    1.000000    
    543 O     s    0.171828 *  0.067524 *  0.804908 *  -2.86902    1.000000    
    544 O     s    0.228959 *  0.286476 *  0.846626 *  -2.86902    1.000000    
    545 O     s    0.342132 *  0.371947 *  0.895214 *  -2.86902    1.000000    
    546 O     s    0.278279 *  0.379989 *  0.793300 *  -2.86902    1.000000    
    547 O     s    0.175950 *  0.060667 *  0.005163 *  -2.86902    1.000000    
    548 O     s    0.302759 *  0.480425 *  0.923461 *  -2.86902    1.000000    
    549 O     s    0.391327 *  0.048091 *  0.960692 *  -2.86902    1.000000    
    550 O     s    0.113623 *  0.382429 *  0.868626 *  -2.86902    1.000000    
    551 O     s    0.820679 *  0.790390 *  0.337778 *  -2.86902    1.000000    
    552 O     s    0.799387 *  0.871981 *  0.408397 *  -2.86902    1.000000    
    553 O     s    0.840716 *  0.900049 *  0.307660 *  -2.86902    1.000000    
    554 O     s    0.786133 *  0.679417 *  0.347569 *  -2.86902    1.000000    
    555 O     s    0.670768 *  0.593976 *  0.395582 *  -2.86902    1.000000    
    556 O     s    0.734082 *  0.586581 *  0.293635 *  -2.86902    1.000000    
    557 O     s    0.841314 *  0.905007 *  0.506270 *  -2.86902    1.000000    
    558 O     s    0.710295 *  0.485334 *  0.423566 *  -2.86902    1.000000    
    559 O     s    0.625018 *  0.914479 *  0.461949 *  -2.86902    1.000000    
    560 O     s    0.898852 *  0.582650 *  0.368970 *  -2.86902    1.000000    
    561 O     s    0.173993 *  0.774335 *  0.162281 *  -2.86902    1.000000    
    562 O     s    0.174447 *  0.868753 *  0.105313 *  -2.86902    1.000000    
    563 O     s    0.231470 *  0.873458 *  0.207772 *  -2.86902    1.000000    
    564 O     s    0.233226 *  0.665518 *  0.165994 *  -2.86902    1.000000    
    565 O     s    0.302335 *  0.589869 *  0.095280 *  -2.86902    1.000000    
    566 O     s    0.356828 *  0.570081 *  0.194221 *  -2.86902    1.000000    
    567 O     s    0.209518 *  0.896783 *  0.006781 *  -2.86902    1.000000    
    568 O     s    0.300010 *  0.479462 *  0.068198 *  -2.86902    1.000000    
    569 O     s    0.389500 *  0.905223 *  0.075254 *  -2.86902    1.000000    
    570 O     s    0.133147 *  0.561843 *  0.165503 *  -2.86902    1.000000    
    571 O     s    0.839193 *  0.190260 *  0.663871 *  -2.86902    1.000000    
    572 O     s    0.838224 *  0.098469 *  0.603877 *  -2.86902    1.000000    
    573 O     s    0.785535 *  0.088291 *  0.705997 *  -2.86902    1.000000    
    574 O     s    0.779928 *  0.299231 *  0.665990 *  -2.86902    1.000000    
    575 O     s    0.711585 *  0.375669 *  0.595520 *  -2.86902    1.000000    
    576 O     s    0.656458 *  0.394545 *  0.694494 *  -2.86902    1.000000    
    577 O     s    0.806653 *  0.068480 *  0.505656 *  -2.86902    1.000000    
    578 O     s    0.712609 *  0.486420 *  0.568975 *  -2.86902    1.000000    
    579 O     s    0.625507 *  0.059783 *  0.573271 *  -2.86902    1.000000    
    580 O     s    0.880500 *  0.402760 *  0.666120 *  -2.86902    1.000000    
--------------------------------------------------------------------------------



********************************************************************************
*  General input information                                                   *
********************************************************************************

  Species output for all configurations : 

--------------------------------------------------------------------------------
  Species    Type    Atomic    Atomic    Charge       Radii (Angs)     Library
                     Number     Mass       (e)     Cova   Ionic  VDW   Symbol
--------------------------------------------------------------------------------
    O        Core        8      16.00   0.869020   0.730  0.000  1.360 O        
    O        Shell       8       0.00  -2.869020   0.730  0.000  0.000 O        
    Si       Core       14      28.09   4.000000   1.200  0.000  2.100 Si       
--------------------------------------------------------------------------------


  Lattice summation method               =    Ewald          (3-D)
                                         =    Parry          (2-D)
                                         =    Saunders et al (1-D)
  Accuracy factor for lattice sums       =   12.000


  Analytic derivatives to be used

  Time limit = Infinity

  Maximum range for interatomic potentials =    100000.000000 Angstroms

  General interatomic potentials :

--------------------------------------------------------------------------------
Atom  Types   Potential      Parameter       Value         Units   Cutoffs(Ang)
  1     2                                                            Min /  Max 
--------------------------------------------------------------------------------
Si   c O    s Buckingham    Buckingham A     1283.9070    eV        0.000 10.000
                            Buckingham rho  0.32052000    Ang       
                            Buckingham C     10.661580    eV*Ang^6  
--------------------------------------------------------------------------------
O    s O    s Buckingham    Buckingham A     22764.000    eV        0.000 12.000
                            Buckingham rho  0.14900000    Ang       
                            Buckingham C     27.879000    eV*Ang^6  
--------------------------------------------------------------------------------
O    c O    s Spring (c-s)  Spring k 2       74.920000    eV*Ang^-2 0.000  1.100
                            Spring k 4       0.0000000    eV*Ang^-4 
--------------------------------------------------------------------------------

  General Three-body potentials :

--------------------------------------------------------------------------------
  Atoms       Potential      Parameter       Value         Units   Cutoffs(Ang)
  1 / 2 / 3                                                          Min /  Max 
--------------------------------------------------------------------------------
Si    core    Harmonic      Three-body cnst  2.0972400    eV*rad^-2 0.000  1.900
O     shel                  Three-body angl  109.47000    degrees   0.000  1.900
O     shel                  Three-body k4    0.0000000    eV*rad^-4 0.000  3.500
                            Three-body k3    0.0000000    eV*rad^-3 
--------------------------------------------------------------------------------
Si    core    Harmonic      Three-body cnst  2.0972400    eV*rad^-2 0.000  1.900
O     shel                  Three-body angl  109.47000    degrees   0.000  1.900
(    shel                  Three-body k4    0.0000000    eV*rad^-4 0.000  3.500
                            Three-body k3    0.0000000    eV*rad^-3 
--------------------------------------------------------------------------------
Si    core    Harmonic      Three-body cnst  2.0972400    eV*rad^-2 0.000  1.900
(    shel                  Three-body angl  109.47000    degrees   0.000  1.900
(    shel                  Three-body k4    0.0000000    eV*rad^-4 0.000  3.500
                            Three-body k3    0.0000000    eV*rad^-3 
--------------------------------------------------------------------------------

********************************************************************************
*  Output for configuration   1 : ReferenceDataBase/EWF                        *
********************************************************************************


  Components of energy : 

--------------------------------------------------------------------------------
  Interatomic potentials     =        3669.84369488 eV    
  Three-body potentials      =           0.52418884 eV    
  Monopole - monopole (real) =      -14754.19949484 eV    
  Monopole - monopole (recip)=       -3684.07744122 eV    
  Monopole - monopole (total)=      -18438.27693606 eV    
--------------------------------------------------------------------------------
  Total lattice energy       =      -14767.90905234 eV    
--------------------------------------------------------------------------------
  Total lattice energy       =        -1424877.4754 kJ/(mole unit cells)
--------------------------------------------------------------------------------


  Number of variables =     1743

  Maximum number of calculations  =           500
  Maximum Hessian update interval =            10
  Maximum step size               =   0.100000000
  Maximum parameter tolerance     =   0.000010000
  Maximum function  tolerance     =   0.000010000
  Maximum gradient  tolerance     =   0.001000000
  Maximum gradient  component     =   0.010000000

  Cell parameters to be optimised using strains

  Newton-Raphson optimiser to be used

  BFGS hessian update to be used

  General 2-D hessian to be used

  Minimiser to switch to RFO
  When gradient norm is less than     0.080000

  Switch max step size to       0.30000000 when gnorm is less than     0.005000

  Dumpfile to be written after every cycle

  Start of bulk optimisation :

  Cycle:      0 Energy:    -14767.909052  Gnorm:      3.013601  CPU:    0.553
  ** Hessian calculated **
  Cycle:      1 Energy:    -14899.278630  Gnorm:      0.771268  CPU:    1.232
  ** Hessian calculated **
  Cycle:      2 Energy:    -14915.004505  Gnorm:      0.147049  CPU:    2.365
  ** Hessian calculated **
  Cycle:      3 Energy:    -14915.465807  Gnorm:      0.073357  CPU:    3.356
  ** Hessian has required structure
  Cycle:      4 Energy:    -14915.465983  Gnorm:      0.073319  CPU:    3.851
  ** Hessian has required structure
  ** Hessian has required structure
  Cycle:      5 Energy:    -14915.580163  Gnorm:      0.036623  CPU:    5.144
  ** Hessian has required structure
  Cycle:      6 Energy:    -14915.608745  Gnorm:      0.018278  CPU:    5.686
  ** Hessian has required structure
  Cycle:      7 Energy:    -14915.615969  Gnorm:      0.009113  CPU:    6.227
  ** Hessian has required structure
  Cycle:      8 Energy:    -14915.617579  Gnorm:      0.005454  CPU:    6.772
  ** Hessian has required structure
  Cycle:      9 Energy:    -14915.618234  Gnorm:      0.002716  CPU:    7.349
  ** Hessian has required structure
  Cycle:     10 Energy:    -14915.618418  Gnorm:      0.000996  CPU:    7.813
  ** Hessian has required structure
  Cycle:     11 Energy:    -14915.618444  Gnorm:      0.000393  CPU:    8.277
  ** Hessian has required structure
  Cycle:     12 Energy:    -14915.618445  Gnorm:      0.000374  CPU:    8.783
  ** Hessian has required structure
  Cycle:     13 Energy:    -14915.618445  Gnorm:      0.000362  CPU:    9.302
  ** Hessian has required structure
  Cycle:     14 Energy:    -14915.618445  Gnorm:      0.000353  CPU:    9.813
  ** Hessian has required structure
  Cycle:     15 Energy:    -14915.618445  Gnorm:      0.000352  CPU:   10.998
  ** Hessian calculated **
  Cycle:     16 Energy:    -14915.618448  Gnorm:      0.000151  CPU:   11.933
  ** Hessian has required structure
  Cycle:     17 Energy:    -14915.618457  Gnorm:      0.000061  CPU:   12.401
  ** Hessian has required structure
  Cycle:     18 Energy:    -14915.618458  Gnorm:      0.000050  CPU:   12.854
  ** Hessian has required structure
  Cycle:     19 Energy:    -14915.618458  Gnorm:      0.000036  CPU:   13.312
  ** Hessian has required structure
  Cycle:     20 Energy:    -14915.618458  Gnorm:      0.000037  CPU:   13.768
  ** Hessian has required structure
  Cycle:     21 Energy:    -14915.618458  Gnorm:      0.000033  CPU:   14.225
  ** Hessian has required structure
  Cycle:     22 Energy:    -14915.618458  Gnorm:      0.000036  CPU:   14.687
  ** Hessian has required structure


  **** Optimisation achieved ****


  Final energy =  -14915.61845776 eV      
  Final Gnorm  =       0.00002735

  Components of energy : 

--------------------------------------------------------------------------------
  Interatomic potentials     =        4046.61010013 eV    
  Three-body potentials      =           1.53226063 eV    
  Monopole - monopole (real) =      -13745.53898593 eV    
  Monopole - monopole (recip)=       -5218.22183259 eV    
  Monopole - monopole (total)=      -18963.76081852 eV    
--------------------------------------------------------------------------------
  Total lattice energy       =      -14915.61845776 eV    
--------------------------------------------------------------------------------
  Total lattice energy       =        -1439129.1751 kJ/(mole unit cells)
--------------------------------------------------------------------------------

  Final fractional coordinates of atoms :

--------------------------------------------------------------------------------
   No.  Atomic        x           y          z          Radius
        Label       (Frac)      (Frac)     (Frac)       (Angs) 
--------------------------------------------------------------------------------
     1  Si    c     0.361934    0.226162    0.193109    0.000000
     2  Si    c     0.363110    0.354202    0.157615    0.000000
     3  Si    c     0.268033    0.411981    0.056145    0.000000
     4  Si    c     0.264589    0.107299    0.160865    0.000000
     5  Si    c     0.152810    0.042769    0.066245    0.000000
     6  Si    c     0.268090    0.420590    0.254506    0.000000
     7  Si    c     0.144121    0.043906    0.253626    0.000000
     8  Si    c     0.506425    0.035728    0.177147    0.000000
     9  Si    c     0.006629    0.443148    0.071717    0.000000
    10  Si    c     0.000821    0.457183    0.271322    0.000000
    11  O     c     0.320299    0.288166    0.168934    0.000000
    12  O     c     0.338503    0.369046    0.095968    0.000000
    13  O     c     0.289619    0.400052    0.193919    0.000000
    14  O     c     0.283421    0.176980    0.163124    0.000000
    15  O     c     0.216159    0.091701    0.102396    0.000000
    16  O     c     0.165863    0.087764    0.204537    0.000000
    17  O     c     0.306560    0.395494    0.996206    0.000000
    18  O     c     0.210294    0.979874    0.080134    0.000000
    19  O     c     0.124051    0.402315    0.062877    0.000000
    20  O     c     0.390752    0.076492    0.173310    0.000000
    21  O     c     0.331341    0.224894    0.255540    0.000000
    22  O     c     0.195765    0.980767    0.236916    0.000000
    23  O     c     0.125523    0.422717    0.264897    0.000000
    24  O     c     0.503893    0.361375    0.171309    0.000000
    25  O     c     0.503276    0.214719    0.183011    0.000000
    26  O     c     0.517115    0.015672    0.238574    0.000000
    27  O     c     0.494984    0.978920    0.139888    0.000000
    28  O     c     0.011400    0.039773    0.078374    0.000000
    29  O     c     0.003158    0.040599    0.266711    0.000000
    30  O     c     0.507469    0.995619    0.036266    0.000000
    31  Si    c     0.652519    0.739928    0.693456    0.000000
    32  Si    c     0.650739    0.611886    0.657822    0.000000
    33  Si    c     0.745088    0.553803    0.556432    0.000000
    34  Si    c     0.750764    0.859146    0.662012    0.000000
    35  Si    c     0.863576    0.923329    0.567236    0.000000
    36  Si    c     0.745050    0.544663    0.754530    0.000000
    37  Si    c     0.874714    0.921065    0.754256    0.000000
    38  Si    c     0.510472    0.932009    0.678314    0.000000
    39  Si    c     0.006195    0.522211    0.571727    0.000000
    40  Si    c     0.012486    0.508513    0.771226    0.000000
    41  O     c     0.694476    0.677718    0.669716    0.000000
    42  O     c     0.675861    0.597265    0.596169    0.000000
    43  O     c     0.723288    0.565518    0.694025    0.000000
    44  O     c     0.729385    0.789563    0.663232    0.000000
    45  O     c     0.798366    0.875110    0.603513    0.000000
    46  O     c     0.851229    0.876868    0.705571    0.000000
    47  O     c     0.705892    0.570015    0.496506    0.000000
    48  O     c     0.807291    0.986627    0.580392    0.000000
    49  O     c     0.889236    0.563295    0.562658    0.000000
    50  O     c     0.627112    0.891642    0.675802    0.000000
    51  O     c     0.683432    0.742056    0.755889    0.000000
    52  O     c     0.807344    0.981500    0.740650    0.000000
    53  O     c     0.887656    0.543021    0.765092    0.000000
    54  O     c     0.509630    0.604885    0.670988    0.000000
    55  O     c     0.511193    0.750640    0.683231    0.000000
    56  O     c     0.498243    0.953876    0.739067    0.000000
    57  O     c     0.520206    0.988227    0.640068    0.000000
    58  O     c     0.004858    0.925452    0.579835    0.000000
    59  O     c     0.015531    0.932619    0.761391    0.000000
    60  O     c     0.508306    0.967313    0.537494    0.000000
    61  Si    c     0.367943    0.749331    0.816375    0.000000
    62  Si    c     0.366237    0.621305    0.850063    0.000000
    63  Si    c     0.264644    0.545488    0.942595    0.000000
    64  Si    c     0.266851    0.866004    0.856319    0.000000
    65  Si    c     0.148334    0.918288    0.951986    0.000000
    66  Si    c     0.263370    0.552579    0.754052    0.000000
    67  Si    c     0.157241    0.924733    0.753708    0.000000
    68  Si    c     0.508970    0.931282    0.877387    0.000000
    69  Si    c     0.003005    0.510958    0.965619    0.000000
    70  O     c     0.346082    0.691007    0.851096    0.000000
    71  O     c     0.289132    0.592541    0.896958    0.000000
    72  O     c     0.327302    0.599050    0.792108    0.000000
    73  O     c     0.277485    0.798604    0.838631    0.000000
    74  O     c     0.174204    0.870440    0.906149    0.000000
    75  O     c     0.218436    0.905994    0.808755    0.000000
    76  O     c     0.337596    0.562471    0.995992    0.000000
    77  O     c     0.208239    0.979365    0.932633    0.000000
    78  O     c     0.121586    0.548441    0.952643    0.000000
    79  O     c     0.396914    0.887955    0.874755    0.000000
    80  O     c     0.337287    0.737298    0.754808    0.000000
    81  O     c     0.214244    0.985990    0.734760    0.000000
    82  O     c     0.119153    0.555459    0.762488    0.000000
    83  O     c     0.504875    0.604110    0.859104    0.000000
    84  O     c     0.506952    0.769876    0.821589    0.000000
    85  O     c     0.493578    0.987238    0.838857    0.000000
    86  O     c     0.520562    0.953328    0.938182    0.000000
    87  O     c     0.006378    0.926945    0.961582    0.000000
    88  Si    c     0.644082    0.215902    0.317281    0.000000
    89  Si    c     0.645779    0.344358    0.350355    0.000000
    90  Si    c     0.748420    0.420245    0.442721    0.000000
    91  Si    c     0.748915    0.099507    0.356726    0.000000
    92  Si    c     0.867420    0.045523    0.451304    0.000000
    93  Si    c     0.749858    0.413487    0.254662    0.000000
    94  Si    c     0.861815    0.043011    0.254143    0.000000
    95  Si    c     0.506833    0.035128    0.380304    0.000000
    96  Si    c     0.010301    0.454516    0.465658    0.000000
    97  O     c     0.665483    0.274640    0.351344    0.000000
    98  O     c     0.722423    0.373020    0.397434    0.000000
    99  O     c     0.685380    0.366943    0.292554    0.000000
   100  O     c     0.734850    0.167269    0.340588    0.000000
   101  O     c     0.846176    0.093306    0.404725    0.000000
   102  O     c     0.790584    0.061187    0.306880    0.000000
   103  O     c     0.676531    0.403536    0.496434    0.000000
   104  O     c     0.805064    0.984748    0.432617    0.000000
   105  O     c     0.891732    0.417228    0.452149    0.000000
   106  O     c     0.622734    0.075775    0.377729    0.000000
   107  O     c     0.675536    0.227144    0.255649    0.000000
   108  O     c     0.813082    0.980074    0.235215    0.000000
   109  O     c     0.894059    0.410175    0.263046    0.000000
   110  O     c     0.506984    0.361375    0.359082    0.000000
   111  O     c     0.504957    0.195139    0.322138    0.000000
   112  O     c     0.512197    0.981743    0.338537    0.000000
   113  O     c     0.498401    0.009793    0.439922    0.000000
   114  O     c     0.008761    0.034919    0.461676    0.000000
   115  Si    c     0.646029    0.749085    0.817283    0.000000
   116  Si    c     0.644396    0.618983    0.849383    0.000000
   117  Si    c     0.743673    0.547072    0.944207    0.000000
   118  Si    c     0.753473    0.864681    0.855910    0.000000
   119  Si    c     0.863391    0.921011    0.953011    0.000000
   120  O     c     0.666809    0.688184    0.847609    0.000000
   121  O     c     0.719938    0.593831    0.898393    0.000000
   122  O     c     0.684093    0.591152    0.793615    0.000000
   123  O     c     0.733081    0.796121    0.845214    0.000000
   124  O     c     0.831471    0.871404    0.909892    0.000000
   125  O     c     0.827551    0.893744    0.808609    0.000000
   126  O     c     0.668887    0.563341    0.997186    0.000000
   127  O     c     0.809999    0.982995    0.932382    0.000000
   128  O     c     0.886258    0.550966    0.955678    0.000000
   129  O     c     0.626339    0.896504    0.860028    0.000000
   130  Si    c     0.366064    0.216365    0.317054    0.000000
   131  Si    c     0.367599    0.346112    0.349485    0.000000
   132  Si    c     0.269474    0.418220    0.444227    0.000000
   133  Si    c     0.263627    0.100262    0.355785    0.000000
   134  Si    c     0.150802    0.043117    0.451381    0.000000
   135  O     c     0.345423    0.276811    0.348132    0.000000
   136  O     c     0.292039    0.371377    0.398407    0.000000
   137  O     c     0.327687    0.373560    0.293542    0.000000
   138  O     c     0.275890    0.168976    0.342891    0.000000
   139  O     c     0.173742    0.091713    0.405935    0.000000
   140  O     c     0.213909    0.065364    0.305491    0.000000
   141  O     c     0.345106    0.402016    0.497037    0.000000
   142  O     c     0.208213    0.981548    0.431782    0.000000
   143  O     c     0.127087    0.414415    0.456191    0.000000
   144  O     c     0.393538    0.075716    0.370025    0.000000
   145  Si    c     0.644556    0.226194    0.193117    0.000000
   146  Si    c     0.644168    0.353604    0.156936    0.000000
   147  Si    c     0.742147    0.414292    0.057886    0.000000
   148  Si    c     0.747289    0.107589    0.159703    0.000000
   149  Si    c     0.869779    0.045218    0.067385    0.000000
   150  O     c     0.686061    0.287249    0.167100    0.000000
   151  O     c     0.669001    0.370263    0.095734    0.000000
   152  O     c     0.719831    0.398054    0.193638    0.000000
   153  O     c     0.721963    0.176470    0.163732    0.000000
   154  O     c     0.813446    0.095984    0.103762    0.000000
   155  O     c     0.836413    0.088925    0.207292    0.000000
   156  O     c     0.706778    0.398745    0.997530    0.000000
   157  O     c     0.807861    0.983632    0.082981    0.000000
   158  O     c     0.885551    0.404331    0.066095    0.000000
   159  O     c     0.622738    0.072608    0.161784    0.000000
   160  Si    c     0.369663    0.739447    0.692422    0.000000
   161  Si    c     0.369478    0.612406    0.656159    0.000000
   162  Si    c     0.271027    0.550965    0.557636    0.000000
   163  Si    c     0.271167    0.859141    0.660184    0.000000
   164  Si    c     0.146170    0.921351    0.567648    0.000000
   165  O     c     0.327826    0.678957    0.665424    0.000000
   166  O     c     0.345012    0.595030    0.595099    0.000000
   167  O     c     0.293119    0.568414    0.693085    0.000000
   168  O     c     0.294319    0.790006    0.663195    0.000000
   169  O     c     0.205654    0.871820    0.604374    0.000000
   170  O     c     0.183501    0.877019    0.708509    0.000000
   171  O     c     0.305144    0.566445    0.497089    0.000000
   172  O     c     0.205948    0.983755    0.581693    0.000000
   173  O     c     0.127724    0.560751    0.566353    0.000000
   174  O     c     0.396444    0.893365    0.663140    0.000000
   175  Si    c     0.867644    0.714758    0.191866    0.000000
   176  Si    c     0.869458    0.843629    0.162774    0.000000
   177  Si    c     0.770577    0.917110    0.069388    0.000000
   178  Si    c     0.769376    0.597130    0.153010    0.000000
   179  Si    c     0.645135    0.543278    0.057827    0.000000
   180  Si    c     0.766058    0.917180    0.255293    0.000000
   181  Si    c     0.661043    0.543186    0.255542    0.000000
   182  Si    c     0.008275    0.528129    0.167155    0.000000
   183  Si    c     0.505496    0.947378    0.082826    0.000000
   184  Si    c     0.510232    0.959696    0.277752    0.000000
   185  O     c     0.843318    0.774404    0.159228    0.000000
   186  O     c     0.843947    0.871540    0.105307    0.000000
   187  O     c     0.784556    0.871734    0.207558    0.000000
   188  O     c     0.779564    0.665350    0.168090    0.000000
   189  O     c     0.700531    0.592393    0.096632    0.000000
   190  O     c     0.690207    0.560724    0.195145    0.000000
   191  O     c     0.800788    0.902628    0.008273    0.000000
   192  O     c     0.709506    0.481584    0.070680    0.000000
   193  O     c     0.627547    0.908854    0.080213    0.000000
   194  O     c     0.902599    0.570524    0.147850    0.000000
   195  O     c     0.834679    0.725390    0.253323    0.000000
   196  O     c     0.702741    0.477847    0.268659    0.000000
   197  O     c     0.623981    0.917317    0.268454    0.000000
   198  O     c     0.008283    0.854892    0.179624    0.000000
   199  O     c     0.006878    0.694718    0.185949    0.000000
   200  O     c     0.986051    0.509441    0.228381    0.000000
   201  O     c     0.013024    0.470726    0.130515    0.000000
   202  O     c     0.503327    0.536346    0.067388    0.000000
   203  O     c     0.519749    0.547978    0.267070    0.000000
   204  O     c     0.006006    0.494437    0.027750    0.000000
   205  Si    c     0.145594    0.250826    0.691749    0.000000
   206  Si    c     0.145497    0.122671    0.660384    0.000000
   207  Si    c     0.245218    0.049711    0.567077    0.000000
   208  Si    c     0.243947    0.368713    0.653018    0.000000
   209  Si    c     0.368473    0.422018    0.557723    0.000000
   210  Si    c     0.251139    0.050773    0.753699    0.000000
   211  Si    c     0.352582    0.422899    0.755195    0.000000
   212  Si    c     0.004481    0.437266    0.667299    0.000000
   213  Si    c     0.509824    0.017805    0.582091    0.000000
   214  Si    c     0.503900    0.009885    0.778221    0.000000
   215  O     c     0.169443    0.192092    0.657845    0.000000
   216  O     c     0.173090    0.096208    0.602538    0.000000
   217  O     c     0.231128    0.094372    0.704733    0.000000
   218  O     c     0.233409    0.300680    0.668620    0.000000
   219  O     c     0.312465    0.372990    0.596518    0.000000
   220  O     c     0.323721    0.405246    0.694807    0.000000
   221  O     c     0.215013    0.063814    0.505724    0.000000
   222  O     c     0.304128    0.483728    0.570408    0.000000
   223  O     c     0.388476    0.056685    0.577792    0.000000
   224  O     c     0.110921    0.395486    0.647796    0.000000
   225  O     c     0.179454    0.238792    0.752955    0.000000
   226  O     c     0.311736    0.488400    0.767898    0.000000
   227  O     c     0.392838    0.053738    0.767749    0.000000
   228  O     c     0.007236    0.109814    0.677107    0.000000
   229  O     c     0.006086    0.270607    0.686490    0.000000
   230  O     c     0.026738    0.456167    0.728425    0.000000
   231  O     c     0.998317    0.494576    0.630505    0.000000
   232  O     c     0.510168    0.428836    0.567601    0.000000
   233  O     c     0.493673    0.417645    0.767073    0.000000
   234  O     c     0.006363    0.470962    0.527775    0.000000
   235  Si    c     0.867818    0.240249    0.817099    0.000000
   236  Si    c     0.867323    0.112744    0.854691    0.000000
   237  Si    c     0.771270    0.047530    0.953028    0.000000
   238  Si    c     0.764288    0.357933    0.849205    0.000000
   239  Si    c     0.648175    0.420721    0.942512    0.000000
   240  Si    c     0.766211    0.046441    0.756433    0.000000
   241  Si    c     0.634650    0.417231    0.754314    0.000000
   242  Si    c     0.005339    0.428098    0.870000    0.000000
   243  Si    c     0.511286    0.011761    0.974094    0.000000
   244  O     c     0.823774    0.177334    0.838092    0.000000
   245  O     c     0.797219    0.095231    0.908085    0.000000
   246  O     c     0.841420    0.067637    0.807266    0.000000
   247  O     c     0.796483    0.289331    0.850549    0.000000
   248  O     c     0.674767    0.371900    0.898145    0.000000
   249  O     c     0.699420    0.372104    0.793765    0.000000
   250  O     c     0.846533    0.062437    0.006150    0.000000
   251  O     c     0.706343    0.482315    0.923924    0.000000
   252  O     c     0.628559    0.051726    0.964700    0.000000
   253  O     c     0.884341    0.396090    0.852660    0.000000
   254  O     c     0.833928    0.245355    0.755164    0.000000
   255  O     c     0.687454    0.481498    0.764034    0.000000
   256  O     c     0.624673    0.047562    0.770327    0.000000
   257  O     c     0.008154    0.110629    0.867460    0.000000
   258  O     c     0.010151    0.248520    0.826001    0.000000
   259  O     c     0.026765    0.482500    0.830415    0.000000
   260  O     c     0.995370    0.452081    0.930168    0.000000
   261  O     c     0.505950    0.429859    0.950452    0.000000
   262  Si    c     0.147004    0.725427    0.316584    0.000000
   263  Si    c     0.149656    0.852553    0.354754    0.000000
   264  Si    c     0.244647    0.916959    0.453345    0.000000
   265  Si    c     0.249238    0.607530    0.348823    0.000000
   266  Si    c     0.364723    0.544534    0.442274    0.000000
   267  Si    c     0.248950    0.918705    0.255816    0.000000
   268  Si    c     0.378854    0.547809    0.254191    0.000000
   269  Si    c     0.008039    0.537545    0.370104    0.000000
   270  Si    c     0.505259    0.951133    0.475257    0.000000
   271  O     c     0.192542    0.788159    0.337338    0.000000
   272  O     c     0.217358    0.868624    0.409150    0.000000
   273  O     c     0.179798    0.898846    0.308772    0.000000
   274  O     c     0.218836    0.676296    0.349805    0.000000
   275  O     c     0.338770    0.593268    0.397697    0.000000
   276  O     c     0.313064    0.592862    0.293290    0.000000
   277  O     c     0.168231    0.903457    0.506488    0.000000
   278  O     c     0.306935    0.482884    0.423634    0.000000
   279  O     c     0.387205    0.911862    0.465269    0.000000
   280  O     c     0.128121    0.570245    0.352618    0.000000
   281  O     c     0.178997    0.720441    0.254476    0.000000
   282  O     c     0.327133    0.483383    0.264334    0.000000
   283  O     c     0.391235    0.921562    0.267398    0.000000
   284  O     c     0.008440    0.854819    0.366277    0.000000
   285  O     c     0.004850    0.717352    0.326294    0.000000
   286  O     c     0.987368    0.483192    0.330486    0.000000
   287  O     c     0.019100    0.513416    0.430216    0.000000
   288  O     c     0.506905    0.535582    0.450592    0.000000
   289  Si    c     0.151390    0.237710    0.815660    0.000000
   290  Si    c     0.148703    0.111044    0.853942    0.000000
   291  Si    c     0.247862    0.044265    0.951488    0.000000
   292  Si    c     0.241239    0.356345    0.850994    0.000000
   293  Si    c     0.364591    0.419350    0.941542    0.000000
   294  O     c     0.194544    0.175589    0.838577    0.000000
   295  O     c     0.219377    0.091298    0.906392    0.000000
   296  O     c     0.171828    0.067524    0.804908    0.000000
   297  O     c     0.228959    0.286476    0.846626    0.000000
   298  O     c     0.342132    0.371947    0.895214    0.000000
   299  O     c     0.278279    0.379989    0.793300    0.000000
   300  O     c     0.175950    0.060667    0.005163    0.000000
   301  O     c     0.302759    0.480425    0.923461    0.000000
   302  O     c     0.391327    0.048091    0.960692    0.000000
   303  O     c     0.113623    0.382429    0.868626    0.000000
   304  Si    c     0.863502    0.727793    0.315871    0.000000
   305  Si    c     0.867256    0.854335    0.354608    0.000000
   306  Si    c     0.768392    0.919709    0.452512    0.000000
   307  Si    c     0.771939    0.609558    0.351445    0.000000
   308  Si    c     0.648248    0.546304    0.441763    0.000000
   309  O     c     0.820679    0.790391    0.337778    0.000000
   310  O     c     0.799387    0.871981    0.408397    0.000000
   311  O     c     0.840716    0.900049    0.307660    0.000000
   312  O     c     0.786133    0.679417    0.347569    0.000000
   313  O     c     0.670768    0.593976    0.395582    0.000000
   314  O     c     0.734082    0.586581    0.293635    0.000000
   315  O     c     0.841314    0.905007    0.506270    0.000000
   316  O     c     0.710295    0.485334    0.423566    0.000000
   317  O     c     0.625018    0.914479    0.461949    0.000000
   318  O     c     0.898852    0.582650    0.368969    0.000000
   319  Si    c     0.146585    0.713696    0.192511    0.000000
   320  Si    c     0.147571    0.843453    0.163650    0.000000
   321  Si    c     0.245236    0.912934    0.067113    0.000000
   322  Si    c     0.254839    0.597036    0.155487    0.000000
   323  Si    c     0.361730    0.541875    0.056488    0.000000
   324  O     c     0.173993    0.774335    0.162281    0.000000
   325  O     c     0.174447    0.868753    0.105313    0.000000
   326  O     c     0.231470    0.873458    0.207772    0.000000
   327  O     c     0.233226    0.665518    0.165994    0.000000
[...]
    329 O     c       0.001739     -0.000653      0.000141      0.000000
    330 O     c      -0.000355      0.000835      0.000173      0.000000
    331 O     c      -0.000251      0.000868      0.001152      0.000000
    332 O     c       0.000676      0.000692     -0.000761      0.000000
    333 O     c      -0.000653     -0.001738      0.000829      0.000000
    334 Si    c       0.000943      0.001114     -0.001791      0.000000
    335 Si    c       0.000064     -0.000586      0.000858      0.000000
    336 Si    c       0.000054      0.002232      0.000765      0.000000
    337 Si    c       0.000441      0.001273      0.000889      0.000000
    338 Si    c      -0.000325     -0.000545      0.003299      0.000000
    339 O     c      -0.000238     -0.000308      0.000862      0.000000
    340 O     c      -0.000316      0.000436     -0.000843      0.000000
    341 O     c      -0.001386      0.000632      0.001450      0.000000
    342 O     c      -0.000024     -0.000014     -0.000908      0.000000
    343 O     c      -0.000170     -0.001463     -0.000164      0.000000
    344 O     c      -0.001799      0.000512     -0.000547      0.000000
    345 O     c       0.000289     -0.000772      0.000106      0.000000
    346 O     c       0.000111     -0.001364      0.001198      0.000000
    347 O     c      -0.000684     -0.000911     -0.000901      0.000000
    348 O     c       0.000000      0.000000      0.000000      0.000000
    349 O     s      -0.000200     -0.001128     -0.002573      0.000000
    350 O     s       0.000391     -0.000495     -0.000762      0.000000
    351 O     s       0.000204     -0.002526     -0.000071      0.000000
    352 O     s      -0.000614     -0.000660     -0.001951      0.000000
    353 O     s       0.001601      0.000672     -0.002254      0.000000
    354 O     s       0.000635      0.000030      0.000100      0.000000
    355 O     s      -0.000386      0.001918     -0.000893      0.000000
    356 O     s      -0.000478      0.001798     -0.000217      0.000000
    357 O     s       0.000298     -0.001167     -0.000629      0.000000
    358 O     s      -0.000920      0.002120     -0.000554      0.000000
    359 O     s       0.001101     -0.001112      0.000715      0.000000
    360 O     s       0.000310     -0.000280     -0.001693      0.000000
    361 O     s       0.000014     -0.001651      0.000178      0.000000
    362 O     s      -0.000014     -0.001680      0.000738      0.000000
    363 O     s       0.000098      0.000361     -0.001070      0.000000
    364 O     s      -0.000026      0.000559     -0.001780      0.000000
    365 O     s      -0.000062      0.001384     -0.001032      0.000000
    366 O     s      -0.000141     -0.003356      0.000112      0.000000
    367 O     s      -0.000090     -0.002018      0.002223      0.000000
    368 O     s       0.000096     -0.000527     -0.001330      0.000000
    369 O     s       0.000260      0.001193     -0.002323      0.000000
    370 O     s      -0.000383      0.000393     -0.000552      0.000000
    371 O     s      -0.000202      0.002464     -0.000100      0.000000
    372 O     s       0.000573      0.000870     -0.001565      0.000000
    373 O     s      -0.001558     -0.000836     -0.002158      0.000000
    374 O     s      -0.000562     -0.000287      0.000327      0.000000
    375 O     s       0.000391     -0.001841     -0.000881      0.000000
    376 O     s       0.000449     -0.001862     -0.000042      0.000000
    377 O     s      -0.000257      0.001471     -0.000585      0.000000
    378 O     s       0.001142     -0.002267     -0.000540      0.000000
    379 O     s      -0.001166      0.000892      0.000629      0.000000
    380 O     s      -0.000174      0.000236     -0.001855      0.000000
    381 O     s      -0.000052      0.001017      0.000125      0.000000
    382 O     s       0.000006      0.001684      0.001060      0.000000
    383 O     s      -0.000011     -0.000164     -0.000687      0.000000
    384 O     s       0.000046     -0.000432     -0.001894      0.000000
    385 O     s       0.000049     -0.001125     -0.000949      0.000000
    386 O     s       0.000062      0.003284      0.000069      0.000000
    387 O     s       0.000075      0.002700      0.002290      0.000000
    388 O     s      -0.000074      0.000664     -0.001556      0.000000
    389 O     s       0.000089      0.000124      0.000265      0.000000
    390 O     s       0.000960      0.000264     -0.001016      0.000000
    391 O     s       0.000366     -0.001203     -0.000017      0.000000
    392 O     s      -0.000742     -0.000771     -0.000284      0.000000
    393 O     s       0.000244     -0.000290      0.000435      0.000000
    394 O     s       0.000460     -0.000700     -0.001955      0.000000
    395 O     s      -0.000445     -0.001056      0.001037      0.000000
    396 O     s      -0.000520     -0.001251      0.000540      0.000000
    397 O     s       0.001330     -0.000512     -0.000312      0.000000
    398 O     s      -0.000623     -0.001808      0.002343      0.000000
    399 O     s       0.000865      0.001812      0.000622      0.000000
    400 O     s       0.000236     -0.000261     -0.001081      0.000000
    401 O     s       0.000171      0.001527     -0.000287      0.000000
    402 O     s      -0.000093      0.001885     -0.000594      0.000000
    403 O     s      -0.000017     -0.002179     -0.000425      0.000000
    404 O     s      -0.000099     -0.000591      0.000274      0.000000
    405 O     s      -0.000182     -0.000396      0.000435      0.000000
    406 O     s       0.000130      0.002866      0.002210      0.000000
    407 O     s      -0.000033     -0.000201      0.000527      0.000000
    408 O     s      -0.000947     -0.000266     -0.000975      0.000000
    409 O     s      -0.000274      0.001060     -0.000127      0.000000
    410 O     s       0.000626      0.000828     -0.000161      0.000000
    411 O     s      -0.000182      0.000564      0.000692      0.000000
    412 O     s      -0.000402      0.000516     -0.002187      0.000000
    413 O     s       0.000579      0.001158      0.001102      0.000000
    414 O     s       0.000490      0.001545      0.000900      0.000000
    415 O     s      -0.001361      0.000431     -0.000481      0.000000
    416 O     s       0.000778      0.001882      0.002153      0.000000
    417 O     s      -0.000885     -0.001636      0.000553      0.000000
    418 O     s      -0.000360     -0.000057     -0.001490      0.000000
    419 O     s      -0.000115     -0.001633     -0.000254      0.000000
    420 O     s       0.000084     -0.001848     -0.000470      0.000000
    421 O     s       0.000088      0.002119     -0.000323      0.000000
    422 O     s       0.000143      0.000490     -0.000013      0.000000
    423 O     s       0.000050      0.000249      0.001019      0.000000
    424 O     s      -0.000102     -0.002851      0.003145      0.000000
    425 O     s      -0.000083      0.000450      0.000414      0.000000
    426 O     s      -0.000773      0.000328     -0.000453      0.000000
    427 O     s      -0.000619     -0.001123      0.000148      0.000000
    428 O     s       0.000804     -0.000282      0.000096      0.000000
    429 O     s      -0.000568     -0.000243      0.000974      0.000000
    430 O     s      -0.000760      0.000064     -0.000894      0.000000
    431 O     s       0.000613     -0.001193      0.000993      0.000000
    432 O     s       0.000658     -0.001366      0.000420      0.000000
    433 O     s      -0.001180     -0.000463     -0.000063      0.000000
    434 O     s       0.000887     -0.002859      0.000468      0.000000
    435 O     s       0.000075     -0.000204      0.000432      0.000000
    436 O     s       0.000759     -0.000406     -0.000455      0.000000
    437 O     s       0.000561      0.001106     -0.000063      0.000000
    438 O     s      -0.000633      0.000583      0.000223      0.000000
    439 O     s       0.000296      0.000532      0.001000      0.000000
    440 O     s       0.000464      0.000124     -0.001752      0.000000
    441 O     s      -0.000603      0.001191      0.001108      0.000000
    442 O     s      -0.000565      0.001601      0.000664      0.000000
    443 O     s       0.001169      0.000316      0.000253      0.000000
    444 O     s      -0.000939      0.002188      0.001126      0.000000
    445 O     s       0.000335     -0.001393     -0.002566      0.000000
    446 O     s      -0.000268     -0.000234     -0.001039      0.000000
    447 O     s      -0.000385     -0.002952     -0.000509      0.000000
    448 O     s       0.000665     -0.000064     -0.001139      0.000000
    449 O     s      -0.000836      0.000158     -0.002539      0.000000
    450 O     s      -0.000849      0.000075      0.001260      0.000000
    451 O     s       0.000330      0.001642     -0.000409      0.000000
    452 O     s       0.000400      0.001214     -0.000733      0.000000
    453 O     s      -0.000271     -0.001180     -0.000735      0.000000
    454 O     s       0.001170      0.002064     -0.002014      0.000000
    455 O     s      -0.000354      0.001312     -0.002249      0.000000
    456 O     s       0.000288      0.000133     -0.000969      0.000000
    457 O     s       0.000345      0.003007     -0.000438      0.000000
    458 O     s      -0.000637      0.000181     -0.000814      0.000000
    459 O     s       0.000989     -0.000616     -0.002592      0.000000
    460 O     s       0.000704     -0.000446      0.001795      0.000000
    461 O     s      -0.000372     -0.001644     -0.000412      0.000000
    462 O     s      -0.000416     -0.001424     -0.000511      0.000000
    463 O     s       0.000159      0.001272     -0.000518      0.000000
    464 O     s      -0.001342     -0.002375     -0.002050      0.000000
    465 O     s      -0.000044     -0.000000     -0.001894      0.000000
    466 O     s       0.000186     -0.000087     -0.001393      0.000000
    467 O     s       0.001065      0.000010     -0.001321      0.000000
    468 O     s      -0.000895      0.001215     -0.000662      0.000000
    469 O     s       0.000064      0.000586     -0.002520      0.000000
    470 O     s       0.000976      0.001396      0.001451      0.000000
    471 O     s      -0.000013      0.001003     -0.000956      0.000000
    472 O     s      -0.000458      0.001034     -0.001356      0.000000
    473 O     s       0.000304     -0.000512     -0.000034      0.000000
    474 O     s      -0.000303      0.002573     -0.002824      0.000000
    475 O     s       0.000840     -0.001950      0.000500      0.000000
    476 O     s       0.000209      0.000252     -0.000379      0.000000
    477 O     s       0.000047     -0.001765      0.000046      0.000000
    478 O     s       0.000007     -0.001271      0.001402      0.000000
    479 O     s      -0.000051      0.001748     -0.001057      0.000000
    480 O     s      -0.000223      0.001003     -0.001836      0.000000
    481 O     s       0.000025      0.001434     -0.001063      0.000000
    482 O     s       0.000146     -0.002292     -0.001110      0.000000
    483 O     s       0.000067     -0.000299      0.001239      0.000000
    484 O     s       0.000001     -0.000655     -0.001639      0.000000
    485 O     s       0.000004      0.000081     -0.001620      0.000000
    486 O     s      -0.000250     -0.000033     -0.001104      0.000000
    487 O     s      -0.001121      0.000126     -0.001259      0.000000
    488 O     s       0.000857     -0.001448     -0.000810      0.000000
    489 O     s       0.000048     -0.000463     -0.002459      0.000000
    490 O     s      -0.000934     -0.001312      0.001416      0.000000
    491 O     s       0.000030     -0.001188     -0.001209      0.000000
    492 O     s       0.000477     -0.000960     -0.001143      0.000000
    493 O     s      -0.000203      0.000721      0.000426      0.000000
    494 O     s       0.000216     -0.003115     -0.001631      0.000000
    495 O     s      -0.000864      0.001817      0.000422      0.000000
    496 O     s      -0.000226     -0.000261     -0.000233      0.000000
    497 O     s       0.000062      0.001998     -0.000321      0.000000
    498 O     s       0.000046      0.001380      0.001411      0.000000
    499 O     s       0.000086     -0.001751     -0.000952      0.000000
    500 O     s       0.000456     -0.001684     -0.002017      0.000000
    501 O     s       0.000153      0.000194     -0.000682      0.000000
    502 O     s      -0.000119      0.002501     -0.000918      0.000000
    503 O     s      -0.000108      0.000593      0.001284      0.000000
    504 O     s      -0.000034      0.000967     -0.001689      0.000000
    505 O     s      -0.000333      0.001255      0.001114      0.000000
    506 O     s      -0.000057      0.000166     -0.000618      0.000000
    507 O     s       0.000224      0.001492     -0.001322      0.000000
    508 O     s      -0.000474      0.000545      0.000068      0.000000
    509 O     s       0.000903     -0.001030      0.000830      0.000000
    510 O     s       0.000665      0.000580     -0.001560      0.000000
    511 O     s      -0.000356     -0.000838      0.001090      0.000000
    512 O     s      -0.000594     -0.000571      0.000528      0.000000
    513 O     s       0.001153      0.000226      0.000418      0.000000
    514 O     s      -0.001091     -0.002499      0.000121      0.000000
    515 O     s       0.001038      0.000844      0.001093      0.000000
    516 O     s       0.000255      0.001084     -0.000523      0.000000
    517 O     s       0.000010      0.001764     -0.000809      0.000000
    518 O     s      -0.000043      0.000215      0.001264      0.000000
    519 O     s      -0.000181     -0.000169     -0.001048      0.000000
    520 O     s       0.000568     -0.001588      0.001536      0.000000
    521 O     s       0.000301      0.000328      0.000396      0.000000
    522 O     s      -0.000047      0.004529      0.002422      0.000000
    523 O     s       0.000351     -0.001325      0.001472      0.000000
    524 O     s       0.000072     -0.000046     -0.000622      0.000000
    525 O     s      -0.000183     -0.001583     -0.001142      0.000000
    526 O     s       0.000427     -0.000462      0.000264      0.000000
    527 O     s      -0.000895      0.001152      0.000912      0.000000
    528 O     s      -0.000679     -0.000441     -0.001547      0.000000
    529 O     s       0.000301      0.000855      0.000959      0.000000
    530 O     s       0.000561      0.000616      0.000716      0.000000
    531 O     s      -0.001133     -0.000006      0.000261      0.000000
    532 O     s       0.001177      0.002575      0.000370      0.000000
    533 O     s      -0.000951     -0.000610      0.000894      0.000000
    534 O     s      -0.000299     -0.001234     -0.000181      0.000000
    535 O     s      -0.000234     -0.001636     -0.000392      0.000000
    536 O     s       0.000015     -0.000221      0.001374      0.000000
    537 O     s       0.000164      0.000195     -0.000820      0.000000
    538 O     s      -0.000548      0.001277      0.001556      0.000000
    539 O     s      -0.000274     -0.000204      0.000449      0.000000
    540 O     s       0.000054     -0.004494      0.002532      0.000000
    541 O     s       0.000208      0.001375      0.001283      0.000000
    542 O     s      -0.000089      0.000441     -0.000346      0.000000
    543 O     s      -0.000311      0.001428     -0.001227      0.000000
    544 O     s       0.000522      0.001033     -0.001013      0.000000
    545 O     s      -0.000578     -0.001032      0.000031      0.000000
    546 O     s      -0.001450     -0.000271     -0.002038      0.000000
    547 O     s       0.000336     -0.000718      0.001056      0.000000
    548 O     s       0.000419     -0.000899      0.000597      0.000000
    549 O     s      -0.001211      0.000266     -0.000025      0.000000
    550 O     s       0.000780     -0.002041      0.002336      0.000000
    551 O     s      -0.000244     -0.001413      0.001624      0.000000
    552 O     s       0.000097     -0.000369     -0.000340      0.000000
    553 O     s       0.000237     -0.001608     -0.001319      0.000000
    554 O     s      -0.000483     -0.001132     -0.000979      0.000000
    555 O     s       0.000632      0.001068     -0.000020      0.000000
    556 O     s       0.001496      0.000433     -0.002041      0.000000
    557 O     s      -0.000311      0.000584      0.001108      0.000000
    558 O     s      -0.000422      0.000929      0.000618      0.000000
    559 O     s       0.001173     -0.000066      0.000019      0.000000
    560 O     s      -0.000858      0.002135      0.002378      0.000000
    561 O     s       0.000079     -0.000233     -0.002355      0.000000
    562 O     s      -0.000200     -0.000324     -0.001144      0.000000
    563 O     s      -0.001031      0.000370     -0.001443      0.000000
    564 O     s       0.000916      0.000632     -0.001901      0.000000
    565 O     s      -0.000962      0.000684     -0.002264      0.000000
    566 O     s      -0.000801      0.001905     -0.000173      0.000000
    567 O     s       0.000134      0.001234     -0.001376      0.000000
    568 O     s       0.000504      0.001693     -0.000646      0.000000
    569 O     s      -0.000360     -0.000800     -0.000293      0.000000
    570 O     s       0.000588      0.003133     -0.000934      0.000000
    571 O     s       0.000058      0.000326     -0.002311      0.000000
    572 O     s       0.000079     -0.000007     -0.000783      0.000000
    573 O     s       0.001161     -0.000211     -0.001337      0.000000
    574 O     s      -0.000688      0.000438     -0.000476      0.000000
    575 O     s       0.001215     -0.000999     -0.002783      0.000000
    576 O     s       0.000421     -0.002660      0.000054      0.000000
    577 O     s      -0.000080     -0.001324     -0.001320      0.000000
    578 O     s      -0.000415     -0.001607     -0.000736      0.000000
    579 O     s       0.000305      0.000914      0.000138      0.000000
    580 O     s       0.000675     -0.003256     -0.003291      0.000000
--------------------------------------------------------------------------------
  Maximum abs         0.001902      0.004529      0.003561      0.000000
--------------------------------------------------------------------------------


  Time to end of optimisation =      15.1433 seconds


  Peak dynamic memory used =      13.51 MB 


  Timing analysis for GULP :

--------------------------------------------------------------------------------
  Task / Subroutine                                          Time (Seconds)
--------------------------------------------------------------------------------
  Calculation of reciprocal space energy and derivatives          1.4064
  Calculation of real space energy and derivatives                5.9185
  Calculation of three-body energy and derivatives                0.5057
  Calculation and manipulation of Hessian matrix                  5.7988
  Calculation of matrix inversion                                 1.2044
  Symmetry generation of equivalent positions                     0.0004
  Global summation overhead                                       0.2990
--------------------------------------------------------------------------------
  Total CPU time                                                 15.1433
--------------------------------------------------------------------------------


  Dump file written as ReferenceDataBase/EWF.grs
  CIF file written as ReferenceDataBase/EWF_opt.cif


  Job Finished at 14:14.23 20th April      2023                               

