********************************************************************************
*                       GENERAL UTILITY LATTICE PROGRAM                        *
*                                 Julian Gale                                  *
*                       Curtin Institute for Computation                       *
*                    School of Molecular and Life Sciences                     *
*                    Curtin University, Western Australia                      *
********************************************************************************
* Version = 6.1.2 * Last modified =   3rd November 2022                        *
********************************************************************************
*  optimise     - perform optimisation run                                     *
*  conp         - constant pressure calculation                                *
*  nosymmetry   - turn off symmetry after initial structure generation         *
********************************************************************************

  Job Started  at 14:14.24 20th April      2023                               

  Number of CPUs =     8


  Total number of configurations input =      1

********************************************************************************
*  Input for Configuration =   1 : ReferenceDataBase/GAM-3                     *
********************************************************************************

  Formula = Si72O144                                                    

  Number of irreducible atoms/shells =     360


  Total number atoms/shells =     360

  Dimensionality = 3               :  Bulk   



  Cartesian lattice vectors (Angstroms) :

       15.268500    0.000000    0.000000
        0.000000   17.733000    0.000000
        0.000000    0.000000   14.839300

  Cell parameters (Angstroms/Degrees):

  a =      15.2685    alpha =  90.0000
  b =      17.7330    beta  =  90.0000
  c =      14.8393    gamma =  90.0000

  Initial cell volume =        4017.834118 Angs**3

  Temperature of configuration =   0.00     K 

  Pressure of configuration =         0.000 GPa 

  Fractional coordinates of asymmetric unit :

--------------------------------------------------------------------------------
   No.  Atomic       x           y          z         Charge      Occupancy
        Label      (Frac)      (Frac)     (Frac)        (e)         (Frac)  
--------------------------------------------------------------------------------
      1 Si    c    0.607773 *  0.865114 *  0.252163 *   4.00000    1.000000    
      2 Si    c    0.710202 *  0.091409 *  0.052523 *   4.00000    1.000000    
      3 Si    c    0.305773 *  0.730050 *  0.256323 *   4.00000    1.000000    
      4 Si    c    0.805773 *  0.230050 *  0.089657 *   4.00000    1.000000    
      5 Si    c    0.607773 *  0.146313 *  0.219171 *   4.00000    1.000000    
      6 Si    c    0.710202 *  0.920017 *  0.085477 *   4.00000    1.000000    
      7 O     c    0.671477 *  0.910692 *  0.185146 *   0.86902    1.000000    
      8 O     c    0.736977 *  0.005713 *  0.069000 *   0.86902    1.000000    
      9 O     c    0.634252 *  0.890468 *  0.018709 *   0.86902    1.000000    
     10 O     c    0.230460 *  0.770504 *  0.195257 *   0.86902    1.000000    
     11 O     c    0.285540 *  0.740922 *  0.028590 *   0.86902    1.000000    
     12 O     c    0.634252 *  0.120958 *  0.119291 *   0.86902    1.000000    
     13 O     c    0.299801 *  0.640942 *  0.232199 *   0.86902    1.000000    
     14 O     c    0.799801 *  0.140942 *  0.065532 *   0.86902    1.000000    
     15 O     c    0.896011 *  0.273919 *  0.065648 *   0.86902    1.000000    
     16 O     c    0.396011 *  0.773919 *  0.232315 *   0.86902    1.000000    
     17 O     c    0.671477 *  0.100734 *  0.286188 *   0.86902    1.000000    
     18 O     c    0.508000 *  0.123826 *  0.235667 *   0.86902    1.000000    
     19 Si    c    0.408227 *  0.146313 *  0.252162 *   4.00000    1.000000    
     20 Si    c    0.305798 *  0.920017 *  0.052523 *   4.00000    1.000000    
     21 Si    c    0.710227 *  0.281376 *  0.256324 *   4.00000    1.000000    
     22 Si    c    0.210227 *  0.781376 *  0.089657 *   4.00000    1.000000    
     23 Si    c    0.408227 *  0.865114 *  0.219171 *   4.00000    1.000000    
     24 Si    c    0.305798 *  0.091409 *  0.085477 *   4.00000    1.000000    
     25 O     c    0.344523 *  0.100734 *  0.185146 *   0.86902    1.000000    
     26 O     c    0.279023 *  0.005713 *  0.069000 *   0.86902    1.000000    
     27 O     c    0.381748 *  0.120958 *  0.018709 *   0.86902    1.000000    
     28 O     c    0.785540 *  0.240922 *  0.195257 *   0.86902    1.000000    
     29 O     c    0.730460 *  0.270504 *  0.028590 *   0.86902    1.000000    
     30 O     c    0.381748 *  0.890468 *  0.119291 *   0.86902    1.000000    
     31 O     c    0.716199 *  0.370484 *  0.232199 *   0.86902    1.000000    
     32 O     c    0.216199 *  0.870484 *  0.065532 *   0.86902    1.000000    
     33 O     c    0.119989 *  0.737507 *  0.065648 *   0.86902    1.000000    
     34 O     c    0.619989 *  0.237508 *  0.232315 *   0.86902    1.000000    
     35 O     c    0.344523 *  0.910692 *  0.286188 *   0.86902    1.000000    
     36 O     c    0.508000 *  0.887600 *  0.235667 *   0.86902    1.000000    
     37 Si    c    0.908227 *  0.365114 *  0.052504 *   4.00000    1.000000    
     38 Si    c    0.805798 *  0.591409 *  0.252144 *   4.00000    1.000000    
     39 Si    c    0.210227 *  0.230050 *  0.048343 *   4.00000    1.000000    
     40 Si    c    0.710227 *  0.730050 *  0.215010 *   4.00000    1.000000    
     41 Si    c    0.908227 *  0.646313 *  0.085496 *   4.00000    1.000000    
     42 Si    c    0.805798 *  0.420017 *  0.219190 *   4.00000    1.000000    
     43 O     c    0.844523 *  0.410692 *  0.119521 *   0.86902    1.000000    
     44 O     c    0.779023 *  0.505713 *  0.235667 *   0.86902    1.000000    
     45 O     c    0.881748 *  0.390468 *  0.285958 *   0.86902    1.000000    
     46 O     c    0.285540 *  0.270504 *  0.109410 *   0.86902    1.000000    
     47 O     c    0.230460 *  0.240922 *  0.276077 *   0.86902    1.000000    
     48 O     c    0.881748 *  0.620958 *  0.185375 *   0.86902    1.000000    
     49 O     c    0.216199 *  0.140942 *  0.072468 *   0.86902    1.000000    
     50 O     c    0.716199 *  0.640942 *  0.239135 *   0.86902    1.000000    
     51 O     c    0.619989 *  0.773919 *  0.239019 *   0.86902    1.000000    
     52 O     c    0.119989 *  0.273919 *  0.072352 *   0.86902    1.000000    
     53 O     c    0.844523 *  0.600734 *  0.018479 *   0.86902    1.000000    
     54 O     c    0.008000 *  0.623826 *  0.069000 *   0.86902    1.000000    
     55 Si    c    0.107773 *  0.646313 *  0.052504 *   4.00000    1.000000    
     56 Si    c    0.210202 *  0.420017 *  0.252144 *   4.00000    1.000000    
     57 Si    c    0.805773 *  0.781376 *  0.048343 *   4.00000    1.000000    
     58 Si    c    0.305773 *  0.281376 *  0.215010 *   4.00000    1.000000    
     59 Si    c    0.107773 *  0.365114 *  0.085496 *   4.00000    1.000000    
     60 Si    c    0.210202 *  0.591409 *  0.219190 *   4.00000    1.000000    
     61 O     c    0.171477 *  0.600734 *  0.119521 *   0.86902    1.000000    
     62 O     c    0.236977 *  0.505713 *  0.235667 *   0.86902    1.000000    
     63 O     c    0.134252 *  0.620958 *  0.285958 *   0.86902    1.000000    
     64 O     c    0.730460 *  0.740922 *  0.109410 *   0.86902    1.000000    
     65 O     c    0.785540 *  0.770504 *  0.276077 *   0.86902    1.000000    
     66 O     c    0.134252 *  0.390468 *  0.185375 *   0.86902    1.000000    
     67 O     c    0.799801 *  0.870484 *  0.072468 *   0.86902    1.000000    
     68 O     c    0.299801 *  0.370484 *  0.239135 *   0.86902    1.000000    
     69 O     c    0.396011 *  0.237508 *  0.239019 *   0.86902    1.000000    
     70 O     c    0.896011 *  0.737508 *  0.072352 *   0.86902    1.000000    
     71 O     c    0.171477 *  0.410692 *  0.018479 *   0.86902    1.000000    
     72 O     c    0.008000 *  0.387600 *  0.069000 *   0.86902    1.000000    
     73 Si    c    0.607773 *  0.865114 *  0.585496 *   4.00000    1.000000    
     74 Si    c    0.710202 *  0.091409 *  0.385856 *   4.00000    1.000000    
     75 Si    c    0.305773 *  0.730050 *  0.589657 *   4.00000    1.000000    
     76 Si    c    0.805773 *  0.230050 *  0.422990 *   4.00000    1.000000    
     77 Si    c    0.607773 *  0.146313 *  0.552504 *   4.00000    1.000000    
     78 Si    c    0.710202 *  0.920017 *  0.418810 *   4.00000    1.000000    
     79 O     c    0.671477 *  0.910692 *  0.518479 *   0.86902    1.000000    
     80 O     c    0.736977 *  0.005713 *  0.402333 *   0.86902    1.000000    
     81 O     c    0.634252 *  0.890468 *  0.352042 *   0.86902    1.000000    
     82 O     c    0.230460 *  0.770504 *  0.528590 *   0.86902    1.000000    
     83 O     c    0.285540 *  0.740922 *  0.361923 *   0.86902    1.000000    
     84 O     c    0.634252 *  0.120958 *  0.452625 *   0.86902    1.000000    
     85 O     c    0.299801 *  0.640942 *  0.565532 *   0.86902    1.000000    
     86 O     c    0.799801 *  0.140942 *  0.398865 *   0.86902    1.000000    
     87 O     c    0.896011 *  0.273919 *  0.398981 *   0.86902    1.000000    
     88 O     c    0.396011 *  0.773919 *  0.565648 *   0.86902    1.000000    
     89 O     c    0.671477 *  0.100734 *  0.619521 *   0.86902    1.000000    
     90 O     c    0.508000 *  0.123826 *  0.569000 *   0.86902    1.000000    
     91 Si    c    0.408227 *  0.146313 *  0.585496 *   4.00000    1.000000    
     92 Si    c    0.305798 *  0.920017 *  0.385856 *   4.00000    1.000000    
     93 Si    c    0.710227 *  0.281376 *  0.589657 *   4.00000    1.000000    
     94 Si    c    0.210227 *  0.781376 *  0.422990 *   4.00000    1.000000    
     95 Si    c    0.408227 *  0.865114 *  0.552504 *   4.00000    1.000000    
     96 Si    c    0.305798 *  0.091409 *  0.418810 *   4.00000    1.000000    
     97 O     c    0.344523 *  0.100734 *  0.518479 *   0.86902    1.000000    
     98 O     c    0.279023 *  0.005713 *  0.402333 *   0.86902    1.000000    
     99 O     c    0.381748 *  0.120958 *  0.352042 *   0.86902    1.000000    
    100 O     c    0.785540 *  0.240922 *  0.528590 *   0.86902    1.000000    
    101 O     c    0.730460 *  0.270504 *  0.361923 *   0.86902    1.000000    
    102 O     c    0.381748 *  0.890468 *  0.452625 *   0.86902    1.000000    
    103 O     c    0.716199 *  0.370484 *  0.565532 *   0.86902    1.000000    
    104 O     c    0.216199 *  0.870484 *  0.398865 *   0.86902    1.000000    
    105 O     c    0.119989 *  0.737508 *  0.398981 *   0.86902    1.000000    
    106 O     c    0.619989 *  0.237507 *  0.565648 *   0.86902    1.000000    
    107 O     c    0.344523 *  0.910692 *  0.619521 *   0.86902    1.000000    
    108 O     c    0.508000 *  0.887600 *  0.569000 *   0.86902    1.000000    
    109 Si    c    0.908227 *  0.365114 *  0.385838 *   4.00000    1.000000    
    110 Si    c    0.805798 *  0.591409 *  0.585477 *   4.00000    1.000000    
    111 Si    c    0.210227 *  0.230050 *  0.381677 *   4.00000    1.000000    
    112 Si    c    0.710227 *  0.730050 *  0.548343 *   4.00000    1.000000    
    113 Si    c    0.908227 *  0.646313 *  0.418829 *   4.00000    1.000000    
    114 Si    c    0.805798 *  0.420017 *  0.552523 *   4.00000    1.000000    
    115 O     c    0.844523 *  0.410692 *  0.452854 *   0.86902    1.000000    
    116 O     c    0.779023 *  0.505713 *  0.569000 *   0.86902    1.000000    
    117 O     c    0.881748 *  0.390468 *  0.619291 *   0.86902    1.000000    
    118 O     c    0.285540 *  0.270504 *  0.442743 *   0.86902    1.000000    
    119 O     c    0.230460 *  0.240922 *  0.609410 *   0.86902    1.000000    
    120 O     c    0.881748 *  0.620958 *  0.518709 *   0.86902    1.000000    
    121 O     c    0.216199 *  0.140942 *  0.405801 *   0.86902    1.000000    
    122 O     c    0.716199 *  0.640942 *  0.572468 *   0.86902    1.000000    
    123 O     c    0.619989 *  0.773919 *  0.572352 *   0.86902    1.000000    
    124 O     c    0.119989 *  0.273919 *  0.405686 *   0.86902    1.000000    
    125 O     c    0.844523 *  0.600734 *  0.351813 *   0.86902    1.000000    
    126 O     c    0.008000 *  0.623826 *  0.402333 *   0.86902    1.000000    
    127 Si    c    0.107773 *  0.646313 *  0.385838 *   4.00000    1.000000    
    128 Si    c    0.210202 *  0.420017 *  0.585477 *   4.00000    1.000000    
    129 Si    c    0.805773 *  0.781376 *  0.381677 *   4.00000    1.000000    
    130 Si    c    0.305773 *  0.281376 *  0.548343 *   4.00000    1.000000    
    131 Si    c    0.107773 *  0.365114 *  0.418829 *   4.00000    1.000000    
    132 Si    c    0.210202 *  0.591409 *  0.552523 *   4.00000    1.000000    
    133 O     c    0.171477 *  0.600734 *  0.452854 *   0.86902    1.000000    
    134 O     c    0.236977 *  0.505713 *  0.569000 *   0.86902    1.000000    
    135 O     c    0.134252 *  0.620958 *  0.619291 *   0.86902    1.000000    
    136 O     c    0.730460 *  0.740922 *  0.442743 *   0.86902    1.000000    
    137 O     c    0.785540 *  0.770504 *  0.609410 *   0.86902    1.000000    
    138 O     c    0.134252 *  0.390468 *  0.518709 *   0.86902    1.000000    
    139 O     c    0.799801 *  0.870484 *  0.405801 *   0.86902    1.000000    
    140 O     c    0.299801 *  0.370484 *  0.572468 *   0.86902    1.000000    
    141 O     c    0.396011 *  0.237507 *  0.572352 *   0.86902    1.000000    
    142 O     c    0.896011 *  0.737507 *  0.405686 *   0.86902    1.000000    
    143 O     c    0.171477 *  0.410692 *  0.351813 *   0.86902    1.000000    
    144 O     c    0.008000 *  0.387600 *  0.402333 *   0.86902    1.000000    
    145 Si    c    0.607773 *  0.865114 *  0.918829 *   4.00000    1.000000    
    146 Si    c    0.710203 *  0.091409 *  0.719190 *   4.00000    1.000000    
    147 Si    c    0.305773 *  0.730050 *  0.922990 *   4.00000    1.000000    
    148 Si    c    0.805773 *  0.230050 *  0.756324 *   4.00000    1.000000    
    149 Si    c    0.607773 *  0.146313 *  0.885838 *   4.00000    1.000000    
    150 Si    c    0.710203 *  0.920017 *  0.752144 *   4.00000    1.000000    
    151 O     c    0.671477 *  0.910692 *  0.851813 *   0.86902    1.000000    
    152 O     c    0.736977 *  0.005713 *  0.735667 *   0.86902    1.000000    
    153 O     c    0.634252 *  0.890468 *  0.685375 *   0.86902    1.000000    
    154 O     c    0.230460 *  0.770504 *  0.861923 *   0.86902    1.000000    
    155 O     c    0.285540 *  0.740922 *  0.695257 *   0.86902    1.000000    
    156 O     c    0.634252 *  0.120958 *  0.785958 *   0.86902    1.000000    
    157 O     c    0.299801 *  0.640942 *  0.898865 *   0.86902    1.000000    
    158 O     c    0.799801 *  0.140942 *  0.732199 *   0.86902    1.000000    
    159 O     c    0.896011 *  0.273919 *  0.732315 *   0.86902    1.000000    
    160 O     c    0.396011 *  0.773919 *  0.898981 *   0.86902    1.000000    
    161 O     c    0.671477 *  0.100734 *  0.952854 *   0.86902    1.000000    
    162 O     c    0.508000 *  0.123826 *  0.902333 *   0.86902    1.000000    
    163 Si    c    0.408227 *  0.146313 *  0.918829 *   4.00000    1.000000    
    164 Si    c    0.305798 *  0.920017 *  0.719190 *   4.00000    1.000000    
    165 Si    c    0.710227 *  0.281376 *  0.922990 *   4.00000    1.000000    
    166 Si    c    0.210227 *  0.781376 *  0.756324 *   4.00000    1.000000    
    167 Si    c    0.408227 *  0.865114 *  0.885838 *   4.00000    1.000000    
    168 Si    c    0.305798 *  0.091409 *  0.752144 *   4.00000    1.000000    
    169 O     c    0.344523 *  0.100734 *  0.851813 *   0.86902    1.000000    
    170 O     c    0.279023 *  0.005713 *  0.735667 *   0.86902    1.000000    
    171 O     c    0.381748 *  0.120958 *  0.685375 *   0.86902    1.000000    
    172 O     c    0.785540 *  0.240922 *  0.861923 *   0.86902    1.000000    
    173 O     c    0.730460 *  0.270504 *  0.695257 *   0.86902    1.000000    
    174 O     c    0.381748 *  0.890468 *  0.785958 *   0.86902    1.000000    
    175 O     c    0.716199 *  0.370484 *  0.898865 *   0.86902    1.000000    
    176 O     c    0.216199 *  0.870484 *  0.732199 *   0.86902    1.000000    
    177 O     c    0.119989 *  0.737507 *  0.732315 *   0.86902    1.000000    
    178 O     c    0.619989 *  0.237507 *  0.898981 *   0.86902    1.000000    
    179 O     c    0.344523 *  0.910692 *  0.952854 *   0.86902    1.000000    
    180 O     c    0.508000 *  0.887600 *  0.902333 *   0.86902    1.000000    
    181 Si    c    0.908227 *  0.365114 *  0.719171 *   4.00000    1.000000    
    182 Si    c    0.805798 *  0.591409 *  0.918810 *   4.00000    1.000000    
    183 Si    c    0.210227 *  0.230050 *  0.715010 *   4.00000    1.000000    
    184 Si    c    0.710227 *  0.730050 *  0.881677 *   4.00000    1.000000    
    185 Si    c    0.908227 *  0.646313 *  0.752163 *   4.00000    1.000000    
    186 Si    c    0.805798 *  0.420017 *  0.885856 *   4.00000    1.000000    
    187 O     c    0.844523 *  0.410692 *  0.786187 *   0.86902    1.000000    
    188 O     c    0.779023 *  0.505713 *  0.902333 *   0.86902    1.000000    
    189 O     c    0.881748 *  0.390468 *  0.952625 *   0.86902    1.000000    
    190 O     c    0.285540 *  0.270504 *  0.776077 *   0.86902    1.000000    
    191 O     c    0.230460 *  0.240922 *  0.942743 *   0.86902    1.000000    
    192 O     c    0.881748 *  0.620958 *  0.852042 *   0.86902    1.000000    
    193 O     c    0.216199 *  0.140942 *  0.739135 *   0.86902    1.000000    
    194 O     c    0.716199 *  0.640942 *  0.905801 *   0.86902    1.000000    
    195 O     c    0.619989 *  0.773919 *  0.905686 *   0.86902    1.000000    
    196 O     c    0.119989 *  0.273919 *  0.739019 *   0.86902    1.000000    
    197 O     c    0.844523 *  0.600734 *  0.685146 *   0.86902    1.000000    
    198 O     c    0.008000 *  0.623826 *  0.735667 *   0.86902    1.000000    
    199 Si    c    0.107773 *  0.646313 *  0.719171 *   4.00000    1.000000    
    200 Si    c    0.210202 *  0.420017 *  0.918810 *   4.00000    1.000000    
    201 Si    c    0.805773 *  0.781376 *  0.715010 *   4.00000    1.000000    
    202 Si    c    0.305773 *  0.281376 *  0.881677 *   4.00000    1.000000    
    203 Si    c    0.107773 *  0.365114 *  0.752163 *   4.00000    1.000000    
    204 Si    c    0.210202 *  0.591409 *  0.885856 *   4.00000    1.000000    
    205 O     c    0.171477 *  0.600734 *  0.786187 *   0.86902    1.000000    
    206 O     c    0.236977 *  0.505713 *  0.902333 *   0.86902    1.000000    
    207 O     c    0.134252 *  0.620958 *  0.952625 *   0.86902    1.000000    
    208 O     c    0.730460 *  0.740922 *  0.776077 *   0.86902    1.000000    
    209 O     c    0.785540 *  0.770504 *  0.942743 *   0.86902    1.000000    
    210 O     c    0.134252 *  0.390468 *  0.852042 *   0.86902    1.000000    
    211 O     c    0.799801 *  0.870484 *  0.739135 *   0.86902    1.000000    
    212 O     c    0.299801 *  0.370484 *  0.905801 *   0.86902    1.000000    
    213 O     c    0.396011 *  0.237507 *  0.905685 *   0.86902    1.000000    
    214 O     c    0.896011 *  0.737507 *  0.739019 *   0.86902    1.000000    
    215 O     c    0.171477 *  0.410692 *  0.685146 *   0.86902    1.000000    
    216 O     c    0.008000    0.387600    0.735667     0.86902    1.000000    
    217 O     s    0.671477 *  0.910692 *  0.185146 *  -2.86902    1.000000    
    218 O     s    0.736977 *  0.005713 *  0.069000 *  -2.86902    1.000000    
    219 O     s    0.634252 *  0.890468 *  0.018709 *  -2.86902    1.000000    
    220 O     s    0.230460 *  0.770504 *  0.195257 *  -2.86902    1.000000    
    221 O     s    0.285540 *  0.740922 *  0.028590 *  -2.86902    1.000000    
    222 O     s    0.634252 *  0.120958 *  0.119291 *  -2.86902    1.000000    
    223 O     s    0.299801 *  0.640942 *  0.232199 *  -2.86902    1.000000    
    224 O     s    0.799801 *  0.140942 *  0.065532 *  -2.86902    1.000000    
    225 O     s    0.896011 *  0.273919 *  0.065648 *  -2.86902    1.000000    
    226 O     s    0.396011 *  0.773919 *  0.232315 *  -2.86902    1.000000    
    227 O     s    0.671477 *  0.100734 *  0.286188 *  -2.86902    1.000000    
    228 O     s    0.508000 *  0.123826 *  0.235667 *  -2.86902    1.000000    
    229 O     s    0.344523 *  0.100734 *  0.185146 *  -2.86902    1.000000    
    230 O     s    0.279023 *  0.005713 *  0.069000 *  -2.86902    1.000000    
    231 O     s    0.381748 *  0.120958 *  0.018709 *  -2.86902    1.000000    
    232 O     s    0.785540 *  0.240922 *  0.195257 *  -2.86902    1.000000    
    233 O     s    0.730460 *  0.270504 *  0.028590 *  -2.86902    1.000000    
    234 O     s    0.381748 *  0.890468 *  0.119291 *  -2.86902    1.000000    
    235 O     s    0.716199 *  0.370484 *  0.232199 *  -2.86902    1.000000    
    236 O     s    0.216199 *  0.870484 *  0.065532 *  -2.86902    1.000000    
    237 O     s    0.119989 *  0.737507 *  0.065648 *  -2.86902    1.000000    
    238 O     s    0.619989 *  0.237508 *  0.232315 *  -2.86902    1.000000    
    239 O     s    0.344523 *  0.910692 *  0.286188 *  -2.86902    1.000000    
    240 O     s    0.508000 *  0.887600 *  0.235667 *  -2.86902    1.000000    
    241 O     s    0.844523 *  0.410692 *  0.119521 *  -2.86902    1.000000    
    242 O     s    0.779023 *  0.505713 *  0.235667 *  -2.86902    1.000000    
    243 O     s    0.881748 *  0.390468 *  0.285958 *  -2.86902    1.000000    
    244 O     s    0.285540 *  0.270504 *  0.109410 *  -2.86902    1.000000    
    245 O     s    0.230460 *  0.240922 *  0.276077 *  -2.86902    1.000000    
    246 O     s    0.881748 *  0.620958 *  0.185375 *  -2.86902    1.000000    
    247 O     s    0.216199 *  0.140942 *  0.072468 *  -2.86902    1.000000    
    248 O     s    0.716199 *  0.640942 *  0.239135 *  -2.86902    1.000000    
    249 O     s    0.619989 *  0.773919 *  0.239019 *  -2.86902    1.000000    
    250 O     s    0.119989 *  0.273919 *  0.072352 *  -2.86902    1.000000    
    251 O     s    0.844523 *  0.600734 *  0.018479 *  -2.86902    1.000000    
    252 O     s    0.008000 *  0.623826 *  0.069000 *  -2.86902    1.000000    
    253 O     s    0.171477 *  0.600734 *  0.119521 *  -2.86902    1.000000    
    254 O     s    0.236977 *  0.505713 *  0.235667 *  -2.86902    1.000000    
    255 O     s    0.134252 *  0.620958 *  0.285958 *  -2.86902    1.000000    
    256 O     s    0.730460 *  0.740922 *  0.109410 *  -2.86902    1.000000    
    257 O     s    0.785540 *  0.770504 *  0.276077 *  -2.86902    1.000000    
    258 O     s    0.134252 *  0.390468 *  0.185375 *  -2.86902    1.000000    
    259 O     s    0.799801 *  0.870484 *  0.072468 *  -2.86902    1.000000    
    260 O     s    0.299801 *  0.370484 *  0.239135 *  -2.86902    1.000000    
    261 O     s    0.396011 *  0.237508 *  0.239019 *  -2.86902    1.000000    
    262 O     s    0.896011 *  0.737508 *  0.072352 *  -2.86902    1.000000    
    263 O     s    0.171477 *  0.410692 *  0.018479 *  -2.86902    1.000000    
    264 O     s    0.008000 *  0.387600 *  0.069000 *  -2.86902    1.000000    
    265 O     s    0.671477 *  0.910692 *  0.518479 *  -2.86902    1.000000    
    266 O     s    0.736977 *  0.005713 *  0.402333 *  -2.86902    1.000000    
    267 O     s    0.634252 *  0.890468 *  0.352042 *  -2.86902    1.000000    
    268 O     s    0.230460 *  0.770504 *  0.528590 *  -2.86902    1.000000    
    269 O     s    0.285540 *  0.740922 *  0.361923 *  -2.86902    1.000000    
    270 O     s    0.634252 *  0.120958 *  0.452625 *  -2.86902    1.000000    
    271 O     s    0.299801 *  0.640942 *  0.565532 *  -2.86902    1.000000    
    272 O     s    0.799801 *  0.140942 *  0.398865 *  -2.86902    1.000000    
    273 O     s    0.896011 *  0.273919 *  0.398981 *  -2.86902    1.000000    
    274 O     s    0.396011 *  0.773919 *  0.565648 *  -2.86902    1.000000    
    275 O     s    0.671477 *  0.100734 *  0.619521 *  -2.86902    1.000000    
    276 O     s    0.508000 *  0.123826 *  0.569000 *  -2.86902    1.000000    
    277 O     s    0.344523 *  0.100734 *  0.518479 *  -2.86902    1.000000    
    278 O     s    0.279023 *  0.005713 *  0.402333 *  -2.86902    1.000000    
    279 O     s    0.381748 *  0.120958 *  0.352042 *  -2.86902    1.000000    
    280 O     s    0.785540 *  0.240922 *  0.528590 *  -2.86902    1.000000    
    281 O     s    0.730460 *  0.270504 *  0.361923 *  -2.86902    1.000000    
    282 O     s    0.381748 *  0.890468 *  0.452625 *  -2.86902    1.000000    
    283 O     s    0.716199 *  0.370484 *  0.565532 *  -2.86902    1.000000    
    284 O     s    0.216199 *  0.870484 *  0.398865 *  -2.86902    1.000000    
    285 O     s    0.119989 *  0.737508 *  0.398981 *  -2.86902    1.000000    
    286 O     s    0.619989 *  0.237507 *  0.565648 *  -2.86902    1.000000    
    287 O     s    0.344523 *  0.910692 *  0.619521 *  -2.86902    1.000000    
    288 O     s    0.508000 *  0.887600 *  0.569000 *  -2.86902    1.000000    
    289 O     s    0.844523 *  0.410692 *  0.452854 *  -2.86902    1.000000    
    290 O     s    0.779023 *  0.505713 *  0.569000 *  -2.86902    1.000000    
    291 O     s    0.881748 *  0.390468 *  0.619291 *  -2.86902    1.000000    
    292 O     s    0.285540 *  0.270504 *  0.442743 *  -2.86902    1.000000    
    293 O     s    0.230460 *  0.240922 *  0.609410 *  -2.86902    1.000000    
    294 O     s    0.881748 *  0.620958 *  0.518709 *  -2.86902    1.000000    
    295 O     s    0.216199 *  0.140942 *  0.405801 *  -2.86902    1.000000    
    296 O     s    0.716199 *  0.640942 *  0.572468 *  -2.86902    1.000000    
    297 O     s    0.619989 *  0.773919 *  0.572352 *  -2.86902    1.000000    
    298 O     s    0.119989 *  0.273919 *  0.405686 *  -2.86902    1.000000    
    299 O     s    0.844523 *  0.600734 *  0.351813 *  -2.86902    1.000000    
    300 O     s    0.008000 *  0.623826 *  0.402333 *  -2.86902    1.000000    
    301 O     s    0.171477 *  0.600734 *  0.452854 *  -2.86902    1.000000    
    302 O     s    0.236977 *  0.505713 *  0.569000 *  -2.86902    1.000000    
    303 O     s    0.134252 *  0.620958 *  0.619291 *  -2.86902    1.000000    
    304 O     s    0.730460 *  0.740922 *  0.442743 *  -2.86902    1.000000    
    305 O     s    0.785540 *  0.770504 *  0.609410 *  -2.86902    1.000000    
    306 O     s    0.134252 *  0.390468 *  0.518709 *  -2.86902    1.000000    
    307 O     s    0.799801 *  0.870484 *  0.405801 *  -2.86902    1.000000    
    308 O     s    0.299801 *  0.370484 *  0.572468 *  -2.86902    1.000000    
    309 O     s    0.396011 *  0.237507 *  0.572352 *  -2.86902    1.000000    
    310 O     s    0.896011 *  0.737507 *  0.405686 *  -2.86902    1.000000    
    311 O     s    0.171477 *  0.410692 *  0.351813 *  -2.86902    1.000000    
    312 O     s    0.008000 *  0.387600 *  0.402333 *  -2.86902    1.000000    
    313 O     s    0.671477 *  0.910692 *  0.851813 *  -2.86902    1.000000    
    314 O     s    0.736977 *  0.005713 *  0.735667 *  -2.86902    1.000000    
    315 O     s    0.634252 *  0.890468 *  0.685375 *  -2.86902    1.000000    
    316 O     s    0.230460 *  0.770504 *  0.861923 *  -2.86902    1.000000    
    317 O     s    0.285540 *  0.740922 *  0.695257 *  -2.86902    1.000000    
    318 O     s    0.634252 *  0.120958 *  0.785958 *  -2.86902    1.000000    
    319 O     s    0.299801 *  0.640942 *  0.898865 *  -2.86902    1.000000    
    320 O     s    0.799801 *  0.140942 *  0.732199 *  -2.86902    1.000000    
    321 O     s    0.896011 *  0.273919 *  0.732315 *  -2.86902    1.000000    
    322 O     s    0.396011 *  0.773919 *  0.898981 *  -2.86902    1.000000    
    323 O     s    0.671477 *  0.100734 *  0.952854 *  -2.86902    1.000000    
    324 O     s    0.508000 *  0.123826 *  0.902333 *  -2.86902    1.000000    
    325 O     s    0.344523 *  0.100734 *  0.851813 *  -2.86902    1.000000    
    326 O     s    0.279023 *  0.005713 *  0.735667 *  -2.86902    1.000000    
    327 O     s    0.381748 *  0.120958 *  0.685375 *  -2.86902    1.000000    
    328 O     s    0.785540 *  0.240922 *  0.861923 *  -2.86902    1.000000    
    329 O     s    0.730460 *  0.270504 *  0.695257 *  -2.86902    1.000000    
    330 O     s    0.381748 *  0.890468 *  0.785958 *  -2.86902    1.000000    
    331 O     s    0.716199 *  0.370484 *  0.898865 *  -2.86902    1.000000    
    332 O     s    0.216199 *  0.870484 *  0.732199 *  -2.86902    1.000000    
    333 O     s    0.119989 *  0.737507 *  0.732315 *  -2.86902    1.000000    
    334 O     s    0.619989 *  0.237507 *  0.898981 *  -2.86902    1.000000    
    335 O     s    0.344523 *  0.910692 *  0.952854 *  -2.86902    1.000000    
    336 O     s    0.508000 *  0.887600 *  0.902333 *  -2.86902    1.000000    
    337 O     s    0.844523 *  0.410692 *  0.786187 *  -2.86902    1.000000    
    338 O     s    0.779023 *  0.505713 *  0.902333 *  -2.86902    1.000000    
    339 O     s    0.881748 *  0.390468 *  0.952625 *  -2.86902    1.000000    
    340 O     s    0.285540 *  0.270504 *  0.776077 *  -2.86902    1.000000    
    341 O     s    0.230460 *  0.240922 *  0.942743 *  -2.86902    1.000000    
    342 O     s    0.881748 *  0.620958 *  0.852042 *  -2.86902    1.000000    
    343 O     s    0.216199 *  0.140942 *  0.739135 *  -2.86902    1.000000    
    344 O     s    0.716199 *  0.640942 *  0.905801 *  -2.86902    1.000000    
    345 O     s    0.619989 *  0.773919 *  0.905686 *  -2.86902    1.000000    
    346 O     s    0.119989 *  0.273919 *  0.739019 *  -2.86902    1.000000    
    347 O     s    0.844523 *  0.600734 *  0.685146 *  -2.86902    1.000000    
    348 O     s    0.008000 *  0.623826 *  0.735667 *  -2.86902    1.000000    
    349 O     s    0.171477 *  0.600734 *  0.786187 *  -2.86902    1.000000    
    350 O     s    0.236977 *  0.505713 *  0.902333 *  -2.86902    1.000000    
    351 O     s    0.134252 *  0.620958 *  0.952625 *  -2.86902    1.000000    
    352 O     s    0.730460 *  0.740922 *  0.776077 *  -2.86902    1.000000    
    353 O     s    0.785540 *  0.770504 *  0.942743 *  -2.86902    1.000000    
    354 O     s    0.134252 *  0.390468 *  0.852042 *  -2.86902    1.000000    
    355 O     s    0.799801 *  0.870484 *  0.739135 *  -2.86902    1.000000    
    356 O     s    0.299801 *  0.370484 *  0.905801 *  -2.86902    1.000000    
    357 O     s    0.396011 *  0.237507 *  0.905685 *  -2.86902    1.000000    
    358 O     s    0.896011 *  0.737507 *  0.739019 *  -2.86902    1.000000    
    359 O     s    0.171477 *  0.410692 *  0.685146 *  -2.86902    1.000000    
    360 O     s    0.008000 *  0.387600 *  0.735667 *  -2.86902    1.000000    
--------------------------------------------------------------------------------



********************************************************************************
*  General input information                                                   *
********************************************************************************

  Species output for all configurations : 

--------------------------------------------------------------------------------
  Species    Type    Atomic    Atomic    Charge       Radii (Angs)     Library
                     Number     Mass       (e)     Cova   Ionic  VDW   Symbol
--------------------------------------------------------------------------------
    O        Core        8      16.00   0.869020   0.730  0.000  1.360 O        
    O        Shell       8       0.00  -2.869020   0.730  0.000  0.000 O        
    Si       Core       14      28.09   4.000000   1.200  0.000  2.100 Si       
--------------------------------------------------------------------------------


  Lattice summation method               =    Ewald          (3-D)
                                         =    Parry          (2-D)
                                         =    Saunders et al (1-D)
  Accuracy factor for lattice sums       =   12.000


  Analytic derivatives to be used

  Time limit = Infinity

  Maximum range for interatomic potentials =    100000.000000 Angstroms

  General interatomic potentials :

--------------------------------------------------------------------------------
Atom  Types   Potential      Parameter       Value         Units   Cutoffs(Ang)
  1     2                                                            Min /  Max 
--------------------------------------------------------------------------------
Si   c O    s Buckingham    Buckingham A     1283.9070    eV        0.000 10.000
                            Buckingham rho  0.32052000    Ang       
                            Buckingham C     10.661580    eV*Ang^6  
--------------------------------------------------------------------------------
O    s O    s Buckingham    Buckingham A     22764.000    eV        0.000 12.000
                            Buckingham rho  0.14900000    Ang       
                            Buckingham C     27.879000    eV*Ang^6  
--------------------------------------------------------------------------------
O    c O    s Spring (c-s)  Spring k 2       74.920000    eV*Ang^-2 0.000  1.100
                            Spring k 4       0.0000000    eV*Ang^-4 
--------------------------------------------------------------------------------

  General Three-body potentials :

--------------------------------------------------------------------------------
  Atoms       Potential      Parameter       Value         Units   Cutoffs(Ang)
  1 / 2 / 3                                                          Min /  Max 
--------------------------------------------------------------------------------
Si    core    Harmonic      Three-body cnst  2.0972400    eV*rad^-2 0.000  1.900
O     shel                  Three-body angl  109.47000    degrees   0.000  1.900
O     shel                  Three-body k4    0.0000000    eV*rad^-4 0.000  3.500
                            Three-body k3    0.0000000    eV*rad^-3 
--------------------------------------------------------------------------------
Si    core    Harmonic      Three-body cnst  2.0972400    eV*rad^-2 0.000  1.900
O     shel                  Three-body angl  109.47000    degrees   0.000  1.900
õ(    shel                  Three-body k4    0.0000000    eV*rad^-4 0.000  3.500
                            Three-body k3    0.0000000    eV*rad^-3 
--------------------------------------------------------------------------------
Si    core    Harmonic      Three-body cnst  2.0972400    eV*rad^-2 0.000  1.900
õ(    shel                  Three-body angl  109.47000    degrees   0.000  1.900
õ(    shel                  Three-body k4    0.0000000    eV*rad^-4 0.000  3.500
                            Three-body k3    0.0000000    eV*rad^-3 
--------------------------------------------------------------------------------

********************************************************************************
*  Output for configuration   1 : ReferenceDataBase/GAM-3                      *
********************************************************************************


  Components of energy : 

--------------------------------------------------------------------------------
  Interatomic potentials     =        2195.58525986 eV    
  Three-body potentials      =           1.30733554 eV    
  Monopole - monopole (real) =       -8747.04735967 eV    
  Monopole - monopole (recip)=       -2553.70614224 eV    
  Monopole - monopole (total)=      -11300.75350191 eV    
--------------------------------------------------------------------------------
  Total lattice energy       =       -9103.86090651 eV    
--------------------------------------------------------------------------------
  Total lattice energy       =         -878383.4122 kJ/(mole unit cells)
--------------------------------------------------------------------------------


  Number of variables =     1083

  Maximum number of calculations  =           500
  Maximum Hessian update interval =            10
  Maximum step size               =   0.100000000
  Maximum parameter tolerance     =   0.000010000
  Maximum function  tolerance     =   0.000010000
  Maximum gradient  tolerance     =   0.001000000
  Maximum gradient  component     =   0.010000000

  Cell parameters to be optimised using strains

  Newton-Raphson optimiser to be used

  BFGS hessian update to be used

  General 2-D hessian to be used

  Minimiser to switch to RFO
  When gradient norm is less than     0.080000

  Switch max step size to       0.30000000 when gnorm is less than     0.005000

  Dumpfile to be written after every cycle

  Start of bulk optimisation :

  Cycle:      0 Energy:     -9103.860907  Gnorm:      3.590948  CPU:    0.268
  ** Hessian calculated **
  Cycle:      1 Energy:     -9149.834816  Gnorm:      2.944476  CPU:    0.469
  ** Hessian calculated **
  Cycle:      2 Energy:     -9180.693689  Gnorm:      2.390627  CPU:    0.809
  ** Hessian calculated **
  Cycle:      3 Energy:     -9239.614879  Gnorm:      0.486920  CPU:    1.103
  ** Hessian calculated **
  Cycle:      4 Energy:     -9243.353005  Gnorm:      0.269638  CPU:    1.416
  Cycle:      5 Energy:     -9244.518141  Gnorm:      0.133277  CPU:    1.514
  Cycle:      6 Energy:     -9244.792704  Gnorm:      0.066603  CPU:    1.611
  ** Hessian has required structure
  Cycle:      7 Energy:     -9244.792983  Gnorm:      0.064982  CPU:    1.755
  ** Hessian has required structure
  Cycle:      8 Energy:     -9244.793120  Gnorm:      0.065677  CPU:    1.902
  ** Hessian has required structure
  Cycle:      9 Energy:     -9244.793190  Gnorm:      0.065474  CPU:    2.049
  ** Hessian has required structure
  Cycle:     10 Energy:     -9244.793442  Gnorm:      0.065986  CPU:    2.193
  ** Hessian has required structure
  Cycle:     11 Energy:     -9244.857062  Gnorm:      0.020497  CPU:    2.336
  ** Hessian has required structure
  Cycle:     12 Energy:     -9244.867451  Gnorm:      0.014680  CPU:    2.481
  ** Hessian has required structure
  Cycle:     13 Energy:     -9244.870941  Gnorm:      0.009970  CPU:    2.628
  ** Hessian has required structure
  Cycle:     14 Energy:     -9244.879300  Gnorm:      0.005983  CPU:    2.937
  ** Hessian has required structure
  Cycle:     15 Energy:     -9244.882835  Gnorm:      0.002406  CPU:    3.131
  ** Hessian has required structure
  Cycle:     16 Energy:     -9244.883327  Gnorm:      0.000965  CPU:    3.278
  ** Hessian has required structure
  Cycle:     17 Energy:     -9244.883339  Gnorm:      0.000925  CPU:    3.500
  ** Hessian has required structure
  Cycle:     18 Energy:     -9244.762735  Gnorm:      0.053067  CPU:    3.783
  ** Hessian has required structure
  Cycle:     19 Energy:     -9244.882742  Gnorm:      0.000586  CPU:    4.088
  ** Hessian has required structure
  Cycle:     20 Energy:     -9244.882762  Gnorm:      0.000059  CPU:    4.236
  ** Hessian has required structure


  **** Optimisation achieved ****


  Final energy =   -9244.88276241 eV      
  Final Gnorm  =       0.00000468

  Components of energy : 

--------------------------------------------------------------------------------
  Interatomic potentials     =        2554.11815844 eV    
  Three-body potentials      =           4.56146421 eV    
  Monopole - monopole (real) =       -8185.73828988 eV    
  Monopole - monopole (recip)=       -3617.82409518 eV    
  Monopole - monopole (total)=      -11803.56238506 eV    
--------------------------------------------------------------------------------
  Total lattice energy       =       -9244.88276241 eV    
--------------------------------------------------------------------------------
  Total lattice energy       =         -891989.8656 kJ/(mole unit cells)
--------------------------------------------------------------------------------

  Final fractional coordinates of atoms :

--------------------------------------------------------------------------------
   No.  Atomic        x           y          z          Radius
        Label       (Frac)      (Frac)     (Frac)       (Angs) 
--------------------------------------------------------------------------------
     1  Si    c     0.607773    0.865114    0.252162    0.000000
     2  Si    c     0.710202    0.091409    0.052523    0.000000
     3  Si    c     0.305773    0.730050    0.256323    0.000000
     4  Si    c     0.805773    0.230050    0.089657    0.000000
     5  Si    c     0.607773    0.146313    0.219171    0.000000
     6  Si    c     0.710202    0.920017    0.085477    0.000000
     7  O     c     0.671477    0.910692    0.185146    0.000000
     8  O     c     0.736977    0.005713    0.069000    0.000000
     9  O     c     0.634252    0.890468    0.018709    0.000000
    10  O     c     0.230460    0.770504    0.195257    0.000000
    11  O     c     0.285540    0.740922    0.028590    0.000000
    12  O     c     0.634252    0.120958    0.119291    0.000000
    13  O     c     0.299801    0.640942    0.232199    0.000000
    14  O     c     0.799801    0.140942    0.065532    0.000000
    15  O     c     0.896011    0.273919    0.065648    0.000000
    16  O     c     0.396011    0.773919    0.232315    0.000000
    17  O     c     0.671477    0.100734    0.286188    0.000000
    18  O     c     0.508000    0.123826    0.235667    0.000000
    19  Si    c     0.408227    0.146313    0.252162    0.000000
    20  Si    c     0.305798    0.920017    0.052523    0.000000
    21  Si    c     0.710227    0.281376    0.256323    0.000000
    22  Si    c     0.210227    0.781376    0.089657    0.000000
    23  Si    c     0.408227    0.865114    0.219171    0.000000
    24  Si    c     0.305798    0.091409    0.085477    0.000000
    25  O     c     0.344523    0.100734    0.185146    0.000000
    26  O     c     0.279023    0.005713    0.069000    0.000000
    27  O     c     0.381748    0.120958    0.018709    0.000000
    28  O     c     0.785540    0.240922    0.195257    0.000000
    29  O     c     0.730460    0.270504    0.028590    0.000000
    30  O     c     0.381748    0.890468    0.119291    0.000000
    31  O     c     0.716199    0.370484    0.232199    0.000000
    32  O     c     0.216199    0.870484    0.065532    0.000000
    33  O     c     0.119989    0.737508    0.065648    0.000000
    34  O     c     0.619989    0.237508    0.232315    0.000000
    35  O     c     0.344523    0.910692    0.286188    0.000000
    36  O     c     0.508000    0.887600    0.235667    0.000000
    37  Si    c     0.908227    0.365114    0.052504    0.000000
    38  Si    c     0.805798    0.591409    0.252144    0.000000
    39  Si    c     0.210227    0.230050    0.048343    0.000000
    40  Si    c     0.710227    0.730050    0.215010    0.000000
    41  Si    c     0.908227    0.646313    0.085496    0.000000
    42  Si    c     0.805798    0.420017    0.219190    0.000000
    43  O     c     0.844523    0.410692    0.119521    0.000000
    44  O     c     0.779023    0.505713    0.235667    0.000000
    45  O     c     0.881748    0.390468    0.285958    0.000000
    46  O     c     0.285540    0.270504    0.109410    0.000000
    47  O     c     0.230460    0.240922    0.276077    0.000000
    48  O     c     0.881748    0.620958    0.185375    0.000000
    49  O     c     0.216199    0.140942    0.072468    0.000000
    50  O     c     0.716199    0.640942    0.239135    0.000000
    51  O     c     0.619989    0.773919    0.239019    0.000000
    52  O     c     0.119989    0.273919    0.072352    0.000000
    53  O     c     0.844523    0.600734    0.018479    0.000000
    54  O     c     0.008000    0.623826    0.069000    0.000000
    55  Si    c     0.107773    0.646313    0.052504    0.000000
    56  Si    c     0.210202    0.420017    0.252144    0.000000
    57  Si    c     0.805773    0.781376    0.048343    0.000000
    58  Si    c     0.305773    0.281376    0.215010    0.000000
    59  Si    c     0.107773    0.365114    0.085496    0.000000
    60  Si    c     0.210202    0.591409    0.219190    0.000000
    61  O     c     0.171477    0.600734    0.119521    0.000000
    62  O     c     0.236977    0.505713    0.235667    0.000000
    63  O     c     0.134252    0.620958    0.285958    0.000000
    64  O     c     0.730460    0.740922    0.109410    0.000000
    65  O     c     0.785540    0.770504    0.276077    0.000000
    66  O     c     0.134252    0.390468    0.185375    0.000000
    67  O     c     0.799801    0.870484    0.072468    0.000000
    68  O     c     0.299801    0.370484    0.239135    0.000000
    69  O     c     0.396011    0.237508    0.239019    0.000000
    70  O     c     0.896011    0.737508    0.072352    0.000000
    71  O     c     0.171477    0.410692    0.018479    0.000000
    72  O     c     0.008000    0.387600    0.069000    0.000000
    73  Si    c     0.607773    0.865114    0.585496    0.000000
    74  Si    c     0.710202    0.091409    0.385856    0.000000
    75  Si    c     0.305773    0.730050    0.589657    0.000000
    76  Si    c     0.805773    0.230050    0.422990    0.000000
    77  Si    c     0.607773    0.146313    0.552504    0.000000
    78  Si    c     0.710202    0.920017    0.418810    0.000000
    79  O     c     0.671477    0.910692    0.518479    0.000000
    80  O     c     0.736977    0.005713    0.402333    0.000000
    81  O     c     0.634252    0.890468    0.352042    0.000000
    82  O     c     0.230460    0.770504    0.528590    0.000000
    83  O     c     0.285540    0.740922    0.361923    0.000000
    84  O     c     0.634252    0.120958    0.452625    0.000000
    85  O     c     0.299801    0.640942    0.565532    0.000000
    86  O     c     0.799801    0.140942    0.398865    0.000000
    87  O     c     0.896011    0.273919    0.398981    0.000000
    88  O     c     0.396011    0.773919    0.565648    0.000000
    89  O     c     0.671477    0.100734    0.619521    0.000000
    90  O     c     0.508000    0.123826    0.569000    0.000000
    91  Si    c     0.408227    0.146313    0.585496    0.000000
    92  Si    c     0.305798    0.920017    0.385856    0.000000
    93  Si    c     0.710227    0.281376    0.589657    0.000000
    94  Si    c     0.210227    0.781376    0.422990    0.000000
    95  Si    c     0.408227    0.865114    0.552504    0.000000
    96  Si    c     0.305798    0.091409    0.418810    0.000000
    97  O     c     0.344523    0.100734    0.518479    0.000000
    98  O     c     0.279023    0.005713    0.402333    0.000000
    99  O     c     0.381748    0.120958    0.352042    0.000000
   100  O     c     0.785540    0.240922    0.528590    0.000000
   101  O     c     0.730460    0.270504    0.361923    0.000000
   102  O     c     0.381748    0.890468    0.452625    0.000000
   103  O     c     0.716199    0.370484    0.565532    0.000000
   104  O     c     0.216199    0.870484    0.398865    0.000000
   105  O     c     0.119989    0.737508    0.398981    0.000000
   106  O     c     0.619989    0.237508    0.565648    0.000000
   107  O     c     0.344523    0.910692    0.619521    0.000000
   108  O     c     0.508000    0.887600    0.569000    0.000000
   109  Si    c     0.908227    0.365114    0.385838    0.000000
   110  Si    c     0.805798    0.591409    0.585477    0.000000
   111  Si    c     0.210227    0.230050    0.381677    0.000000
   112  Si    c     0.710227    0.730050    0.548343    0.000000
   113  Si    c     0.908227    0.646313    0.418829    0.000000
   114  Si    c     0.805798    0.420017    0.552523    0.000000
   115  O     c     0.844523    0.410692    0.452854    0.000000
   116  O     c     0.779023    0.505713    0.569000    0.000000
   117  O     c     0.881748    0.390468    0.619291    0.000000
   118  O     c     0.285540    0.270504    0.442743    0.000000
   119  O     c     0.230460    0.240922    0.609410    0.000000
   120  O     c     0.881748    0.620958    0.518709    0.000000
   121  O     c     0.216199    0.140942    0.405801    0.000000
   122  O     c     0.716199    0.640942    0.572468    0.000000
   123  O     c     0.619989    0.773919    0.572352    0.000000
   124  O     c     0.119989    0.273919    0.405685    0.000000
   125  O     c     0.844523    0.600734    0.351813    0.000000
   126  O     c     0.008000    0.623826    0.402333    0.000000
   127  Si    c     0.107773    0.646313    0.385838    0.000000
   128  Si    c     0.210202    0.420017    0.585477    0.000000
   129  Si    c     0.805773    0.781376    0.381677    0.000000
   130  Si    c     0.305773    0.281376    0.548343    0.000000
   131  Si    c     0.107773    0.365114    0.418829    0.000000
   132  Si    c     0.210202    0.591409    0.552523    0.000000
   133  O     c     0.171477    0.600734    0.452854    0.000000
   134  O     c     0.236977    0.505713    0.569000    0.000000
   135  O     c     0.134252    0.620958    0.619291    0.000000
   136  O     c     0.730460    0.740922    0.442743    0.000000
   137  O     c     0.785540    0.770504    0.609410    0.000000
   138  O     c     0.134252    0.390468    0.518709    0.000000
   139  O     c     0.799801    0.870484    0.405801    0.000000
   140  O     c     0.299801    0.370484    0.572468    0.000000
   141  O     c     0.396011    0.237508    0.572352    0.000000
   142  O     c     0.896011    0.737508    0.405685    0.000000
   143  O     c     0.171477    0.410692    0.351813    0.000000
   144  O     c     0.008000    0.387600    0.402333    0.000000
   145  Si    c     0.607773    0.865114    0.918829    0.000000
   146  Si    c     0.710203    0.091409    0.719190    0.000000
   147  Si    c     0.305773    0.730050    0.922990    0.000000
   148  Si    c     0.805773    0.230050    0.756323    0.000000
   149  Si    c     0.607773    0.146313    0.885838    0.000000
   150  Si    c     0.710202    0.920017    0.752144    0.000000
   151  O     c     0.671477    0.910692    0.851813    0.000000
   152  O     c     0.736977    0.005713    0.735667    0.000000
   153  O     c     0.634252    0.890468    0.685375    0.000000
   154  O     c     0.230460    0.770504    0.861923    0.000000
   155  O     c     0.285540    0.740922    0.695257    0.000000
   156  O     c     0.634252    0.120958    0.785958    0.000000
   157  O     c     0.299801    0.640942    0.898865    0.000000
   158  O     c     0.799801    0.140942    0.732199    0.000000
   159  O     c     0.896011    0.273919    0.732315    0.000000
   160  O     c     0.396011    0.773919    0.898981    0.000000
   161  O     c     0.671477    0.100734    0.952854    0.000000
   162  O     c     0.508000    0.123826    0.902333    0.000000
   163  Si    c     0.408227    0.146313    0.918829    0.000000
   164  Si    c     0.305798    0.920017    0.719190    0.000000
   165  Si    c     0.710227    0.281376    0.922990    0.000000
   166  Si    c     0.210227    0.781376    0.756323    0.000000
   167  Si    c     0.408227    0.865114    0.885838    0.000000
   168  Si    c     0.305797    0.091409    0.752144    0.000000
   169  O     c     0.344523    0.100734    0.851813    0.000000
   170  O     c     0.279023    0.005713    0.735667    0.000000
   171  O     c     0.381748    0.120958    0.685375    0.000000
   172  O     c     0.785540    0.240922    0.861923    0.000000
   173  O     c     0.730460    0.270504    0.695257    0.000000
   174  O     c     0.381748    0.890468    0.785958    0.000000
   175  O     c     0.716199    0.370484    0.898865    0.000000
   176  O     c     0.216199    0.870484    0.732199    0.000000
   177  O     c     0.119989    0.737508    0.732315    0.000000
   178  O     c     0.619989    0.237508    0.898981    0.000000
   179  O     c     0.344523    0.910692    0.952854    0.000000
   180  O     c     0.508000    0.887600    0.902333    0.000000
   181  Si    c     0.908227    0.365114    0.719171    0.000000
   182  Si    c     0.805798    0.591409    0.918810    0.000000
   183  Si    c     0.210227    0.230050    0.715010    0.000000
   184  Si    c     0.710227    0.730050    0.881677    0.000000
   185  Si    c     0.908227    0.646313    0.752162    0.000000
   186  Si    c     0.805798    0.420017    0.885856    0.000000
   187  O     c     0.844523    0.410692    0.786188    0.000000
   188  O     c     0.779023    0.505713    0.902333    0.000000
   189  O     c     0.881748    0.390468    0.952625    0.000000
   190  O     c     0.285540    0.270504    0.776077    0.000000
   191  O     c     0.230460    0.240922    0.942743    0.000000
   192  O     c     0.881748    0.620958    0.852042    0.000000
   193  O     c     0.216199    0.140942    0.739135    0.000000
   194  O     c     0.716199    0.640942    0.905801    0.000000
   195  O     c     0.619989    0.773919    0.905685    0.000000
   196  O     c     0.119989    0.273919    0.739019    0.000000
   197  O     c     0.844523    0.600734    0.685146    0.000000
   198  O     c     0.008000    0.623826    0.735667    0.000000
   199  Si    c     0.107773    0.646313    0.719171    0.000000
   200  Si    c     0.210202    0.420017    0.918810    0.000000
   201  Si    c     0.805773    0.781376    0.715010    0.000000
   202  Si    c     0.305773    0.281376    0.881677    0.000000
   203  Si    c     0.107773    0.365114    0.752162    0.000000
   204  Si    c     0.210202    0.591409    0.885856    0.000000
   205  O     c     0.171477    0.600734    0.786188    0.000000
   206  O     c     0.236977    0.505713    0.902333    0.000000
   207  O     c     0.134252    0.620958    0.952625    0.000000
   208  O     c     0.730460    0.740922    0.776077    0.000000
   209  O     c     0.785540    0.770504    0.942743    0.000000
   210  O     c     0.134252    0.390468    0.852042    0.000000
   211  O     c     0.799801    0.870484    0.739135    0.000000
   212  O     c     0.299801    0.370484    0.905801    0.000000
   213  O     c     0.396011    0.237508    0.905685    0.000000
   214  O     c     0.896011    0.737508    0.739019    0.000000
   215  O     c     0.171477    0.410692    0.685146    0.000000
   216  O     c     0.008000    0.387600    0.735667    0.000000
   217  O     s     0.668896    0.906706    0.181292    0.000000
   218  O     s     0.730701    0.005713    0.069000    0.000000
   219  O     s     0.639503    0.890761    0.014685    0.000000
   220  O     s     0.235806    0.767632    0.190026    0.000000
   221  O     s     0.280194    0.743794    0.023359    0.000000
   222  O     s     0.639503    0.120665    0.123315    0.000000
   223  O     s     0.291517    0.645345    0.233437    0.000000
   224  O     s     0.791517    0.145345    0.066770    0.000000
   225  O     s     0.887778    0.278305    0.066893    0.000000
   226  O     s     0.387778    0.778305    0.233559    0.000000
   227  O     s     0.668896    0.104721    0.290042    0.000000
   228  O     s     0.508000    0.129042    0.235667    0.000000
   229  O     s     0.347104    0.104721    0.181291    0.000000
   230  O     s     0.285299    0.005713    0.069000    0.000000
   231  O     s     0.376497    0.120665    0.014685    0.000000
   232  O     s     0.780194    0.243794    0.190026    0.000000
   233  O     s     0.735806    0.267632    0.023359    0.000000
   234  O     s     0.376497    0.890761    0.123315    0.000000
   235  O     s     0.724483    0.366081    0.233437    0.000000
   236  O     s     0.224483    0.866081    0.066770    0.000000
   237  O     s     0.128222    0.733121    0.066893    0.000000
   238  O     s     0.628222    0.233121    0.233559    0.000000
   239  O     s     0.347104    0.906706    0.290042    0.000000
   240  O     s     0.508000    0.882384    0.235667    0.000000
   241  O     s     0.847104    0.406706    0.123375    0.000000
   242  O     s     0.785299    0.505713    0.235667    0.000000
   243  O     s     0.876497    0.390761    0.289982    0.000000
   244  O     s     0.280194    0.267632    0.114641    0.000000
   245  O     s     0.235806    0.243794    0.281307    0.000000
   246  O     s     0.876497    0.620665    0.181351    0.000000
   247  O     s     0.224483    0.145345    0.071230    0.000000
   248  O     s     0.724483    0.645345    0.237896    0.000000
   249  O     s     0.628222    0.778305    0.237774    0.000000
   250  O     s     0.128222    0.278305    0.071107    0.000000
   251  O     s     0.847104    0.604721    0.014625    0.000000
   252  O     s     0.008000    0.629042    0.069000    0.000000
   253  O     s     0.168896    0.604721    0.123375    0.000000
   254  O     s     0.230701    0.505713    0.235667    0.000000
   255  O     s     0.139503    0.620665    0.289982    0.000000
   256  O     s     0.735806    0.743794    0.114641    0.000000
   257  O     s     0.780194    0.767632    0.281307    0.000000
   258  O     s     0.139503    0.390761    0.181351    0.000000
   259  O     s     0.791517    0.866081    0.071230    0.000000
   260  O     s     0.291517    0.366081    0.237896    0.000000
   261  O     s     0.387778    0.233121    0.237774    0.000000
   262  O     s     0.887778    0.733121    0.071107    0.000000
   263  O     s     0.168896    0.406706    0.014625    0.000000
   264  O     s     0.008000    0.382384    0.069000    0.000000
   265  O     s     0.668896    0.906706    0.514625    0.000000
   266  O     s     0.730701    0.005713    0.402333    0.000000
   267  O     s     0.639503    0.890761    0.348018    0.000000
   268  O     s     0.235806    0.767632    0.523359    0.000000
   269  O     s     0.280194    0.743794    0.356693    0.000000
   270  O     s     0.639503    0.120665    0.456649    0.000000
   271  O     s     0.291517    0.645345    0.566770    0.000000
   272  O     s     0.791517    0.145345    0.400104    0.000000
   273  O     s     0.887778    0.278305    0.400226    0.000000
   274  O     s     0.387778    0.778305    0.566893    0.000000
   275  O     s     0.668896    0.104721    0.623375    0.000000
   276  O     s     0.508000    0.129042    0.569000    0.000000
   277  O     s     0.347104    0.104721    0.514625    0.000000
   278  O     s     0.285299    0.005713    0.402333    0.000000
   279  O     s     0.376497    0.120665    0.348018    0.000000
   280  O     s     0.780194    0.243794    0.523359    0.000000
   281  O     s     0.735806    0.267632    0.356693    0.000000
   282  O     s     0.376497    0.890761    0.456649    0.000000
   283  O     s     0.724483    0.366081    0.566770    0.000000
   284  O     s     0.224483    0.866081    0.400104    0.000000
   285  O     s     0.128222    0.733121    0.400226    0.000000
   286  O     s     0.628222    0.233121    0.566893    0.000000
   287  O     s     0.347104    0.906706    0.623375    0.000000
   288  O     s     0.508000    0.882384    0.569000    0.000000
   289  O     s     0.847104    0.406706    0.456709    0.000000
   290  O     s     0.785299    0.505713    0.569000    0.000000
   291  O     s     0.876497    0.390761    0.623315    0.000000
   292  O     s     0.280194    0.267632    0.447974    0.000000
   293  O     s     0.235806    0.243794    0.614641    0.000000
   294  O     s     0.876497    0.620665    0.514685    0.000000
   295  O     s     0.224483    0.145345    0.404563    0.000000
   296  O     s     0.724483    0.645345    0.571230    0.000000
   297  O     s     0.628222    0.778305    0.571107    0.000000
   298  O     s     0.128222    0.278305    0.404441    0.000000
   299  O     s     0.847104    0.604721    0.347958    0.000000
   300  O     s     0.008000    0.629042    0.402333    0.000000
   301  O     s     0.168896    0.604721    0.456709    0.000000
   302  O     s     0.230701    0.505713    0.569000    0.000000
   303  O     s     0.139503    0.620665    0.623315    0.000000
   304  O     s     0.735806    0.743794    0.447974    0.000000
   305  O     s     0.780194    0.767632    0.614641    0.000000
   306  O     s     0.139503    0.390761    0.514685    0.000000
   307  O     s     0.791517    0.866081    0.404563    0.000000
   308  O     s     0.291517    0.366081    0.571230    0.000000
   309  O     s     0.387778    0.233121    0.571107    0.000000
   310  O     s     0.887778    0.733121    0.404441    0.000000
   311  O     s     0.168896    0.406706    0.347958    0.000000
   312  O     s     0.008000    0.382384    0.402333    0.000000
   313  O     s     0.668896    0.906706    0.847958    0.000000
   314  O     s     0.730701    0.005713    0.735667    0.000000
   315  O     s     0.639503    0.890761    0.681351    0.000000
   316  O     s     0.235806    0.767632    0.856693    0.000000
   317  O     s     0.280194    0.743794    0.690026    0.000000
   318  O     s     0.639503    0.120665    0.789982    0.000000
   319  O     s     0.291517    0.645345    0.900104    0.000000
   320  O     s     0.791517    0.145345    0.733437    0.000000
   321  O     s     0.887778    0.278305    0.733559    0.000000
   322  O     s     0.387778    0.778305    0.900226    0.000000
   323  O     s     0.668896    0.104721    0.956709    0.000000
   324  O     s     0.508000    0.129042    0.902333    0.000000
   325  O     s     0.347104    0.104721    0.847958    0.000000
   326  O     s     0.285299    0.005713    0.735667    0.000000
   327  O     s     0.376497    0.120665    0.681351    0.000000
   328  O     s     0.780194    0.243794    0.856693    0.000000
   329  O     s     0.735806    0.267632    0.690026    0.000000
   330  O     s     0.376497    0.890761    0.789982    0.000000
   331  O     s     0.724483    0.366081    0.900104    0.000000
   332  O     s     0.224483    0.866081    0.733437    0.000000
   333  O     s     0.128222    0.733121    0.733559    0.000000
   334  O     s     0.628222    0.233121    0.900226    0.000000
   335  O     s     0.347104    0.906706    0.956709    0.000000
   336  O     s     0.508000    0.882384    0.902333    0.000000
   337  O     s     0.847104    0.406706    0.790042    0.000000
   338  O     s     0.785299    0.505713    0.902333    0.000000
   339  O     s     0.876497    0.390761    0.956649    0.000000
   340  O     s     0.280194    0.267632    0.781307    0.000000
   341  O     s     0.235806    0.243794    0.947974    0.000000
   342  O     s     0.876497    0.620665    0.848018    0.000000
   343  O     s     0.224483    0.145345    0.737896    0.000000
   344  O     s     0.724483    0.645345    0.904563    0.000000
   345  O     s     0.628222    0.778305    0.904441    0.000000
   346  O     s     0.128222    0.278305    0.737774    0.000000
   347  O     s     0.847104    0.604721    0.681292    0.000000
   348  O     s     0.008000    0.629042    0.735667    0.000000
   349  O     s     0.168896    0.604721    0.790042    0.000000
   350  O     s     0.230701    0.505713    0.902333    0.000000
   351  O     s     0.139503    0.620665    0.956649    0.000000
   352  O     s     0.735806    0.743794    0.781307    0.000000
   353  O     s     0.780194    0.767632    0.947974    0.000000
   354  O     s     0.139503    0.390761    0.848018    0.000000
   355  O     s     0.791517    0.866081    0.737896    0.000000
   356  O     s     0.291517    0.366081    0.904563    0.000000
   357  O     s     0.387778    0.233121    0.904441    0.000000
   358  O     s     0.887778    0.733121    0.737774    0.000000
   359  O     s     0.168896    0.406706    0.681292    0.000000
   360  O     s     0.008000    0.382384    0.735667    0.000000
--------------------------------------------------------------------------------

  Final Cartesian lattice vectors (Angstroms) :

       15.268486   -0.000000    0.000001
        0.000000   17.733007   -0.000000
       -0.000000    0.000000   14.839251


  Final cell parameters and derivatives :

--------------------------------------------------------------------------------
       a           15.268486 Angstrom     dE/de1(xx)    -0.000516 eV/strain
       b           17.733007 Angstrom     dE/de2(yy)    -0.000366 eV/strain
       c           14.839251 Angstrom     dE/de3(zz)    -0.000730 eV/strain
       alpha       90.000000 Degrees      dE/de4(yz)     0.000000 eV/strain
       beta        90.000000 Degrees      dE/de5(xz)     0.000002 eV/strain
       gamma       90.000000 Degrees      dE/de6(xy)    -0.000000 eV/strain
--------------------------------------------------------------------------------

  Primitive cell volume =          4017.818984 Angs**3

  Density of cell =      1.788135 g/cm**3

  Non-primitive cell volume =          4017.818984 Angs**3


  Final internal derivatives :

--------------------------------------------------------------------------------
   No.  Atomic          a             b             c           Radius
        Label          (eV)          (eV)          (eV)        (eV/Angs)
--------------------------------------------------------------------------------
      1 Si    c      -0.000533      0.000099     -0.000060      0.000000
      2 Si    c       0.000211      0.000399     -0.000010      0.000000
      3 Si    c       0.000280      0.000238     -0.000008      0.000000
      4 Si    c       0.000283      0.000235     -0.000008      0.000000
      5 Si    c      -0.000529     -0.000101      0.000062      0.000000
      6 Si    c       0.000210     -0.000399      0.000012      0.000000
      7 O     c       0.000177      0.000027     -0.000130      0.000000
      8 O     c      -0.000010     -0.000002     -0.000000      0.000000
      9 O     c      -0.000211      0.000106     -0.000059      0.000000
     10 O     c      -0.000264     -0.000057     -0.000114      0.000000
     11 O     c       0.000267      0.000057     -0.000116      0.000000
     12 O     c      -0.000203     -0.000108      0.000057      0.000000
     13 O     c      -0.000151     -0.000077     -0.000013      0.000000
     14 O     c      -0.000152     -0.000079     -0.000016      0.000000
     15 O     c      -0.000151     -0.000078      0.000023      0.000000
     16 O     c      -0.000152     -0.000077      0.000023      0.000000
     17 O     c       0.000175     -0.000027      0.000129      0.000000
     18 O     c      -0.000000      0.000005     -0.000000      0.000000
     19 Si    c       0.000529     -0.000101     -0.000062      0.000000
     20 Si    c      -0.000210     -0.000398     -0.000010      0.000000
     21 Si    c      -0.000277     -0.000237     -0.000010      0.000000
     22 Si    c      -0.000283     -0.000235     -0.000007      0.000000
     23 Si    c       0.000533      0.000099      0.000060      0.000000
     24 Si    c      -0.000206      0.000398      0.000010      0.000000
     25 O     c      -0.000175     -0.000027     -0.000129      0.000000
     26 O     c       0.000010     -0.000001     -0.000000      0.000000
     27 O     c       0.000208     -0.000107     -0.000059      0.000000
     28 O     c       0.000262      0.000055     -0.000112      0.000000
     29 O     c      -0.000265     -0.000056     -0.000113      0.000000
     30 O     c       0.000207      0.000106      0.000057      0.000000
     31 O     c       0.000152      0.000076     -0.000013      0.000000
     32 O     c       0.000152      0.000077     -0.000014      0.000000
     33 O     c       0.000151      0.000078      0.000023      0.000000
     34 O     c       0.000151      0.000077      0.000023      0.000000
     35 O     c      -0.000177      0.000027      0.000130      0.000000
     36 O     c       0.000000     -0.000007     -0.000000      0.000000
     37 Si    c       0.000537      0.000094      0.000061      0.000000
     38 Si    c      -0.000211      0.000400      0.000012      0.000000
     39 Si    c      -0.000284      0.000235      0.000006      0.000000
     40 Si    c      -0.000280      0.000238      0.000008      0.000000
     41 Si    c       0.000540     -0.000094     -0.000058      0.000000
     42 Si    c      -0.000211     -0.000402     -0.000012      0.000000
     43 O     c      -0.000178      0.000025      0.000131      0.000000
     44 O     c       0.000011      0.000000      0.000000      0.000000
     45 O     c       0.000210      0.000103      0.000056      0.000000
     46 O     c       0.000266     -0.000057      0.000114      0.000000
     47 O     c      -0.000262      0.000055      0.000112      0.000000
     48 O     c       0.000209     -0.000103     -0.000057      0.000000
     49 O     c       0.000148     -0.000077      0.000015      0.000000
     50 O     c       0.000151     -0.000077      0.000013      0.000000
     51 O     c       0.000152     -0.000077     -0.000023      0.000000
     52 O     c       0.000152     -0.000078     -0.000022      0.000000
     53 O     c      -0.000181     -0.000025     -0.000133      0.000000
     54 O     c      -0.000002      0.000011     -0.000002      0.000000
     55 Si    c      -0.000537     -0.000096      0.000062      0.000000
     56 Si    c       0.000211     -0.000402      0.000012      0.000000
     57 Si    c       0.000282     -0.000234      0.000006      0.000000
     58 Si    c       0.000277     -0.000237      0.000010      0.000000
     59 Si    c      -0.000537      0.000094     -0.000059      0.000000
     60 Si    c       0.000211      0.000400     -0.000012      0.000000
     61 O     c       0.000178     -0.000026      0.000130      0.000000
     62 O     c      -0.000011      0.000000     -0.000000      0.000000
     63 O     c      -0.000209     -0.000103      0.000057      0.000000
     64 O     c      -0.000265      0.000057      0.000114      0.000000
     65 O     c       0.000264     -0.000057      0.000114      0.000000
     66 O     c      -0.000210      0.000103     -0.000056      0.000000
     67 O     c      -0.000150      0.000077      0.000014      0.000000
     68 O     c      -0.000152      0.000076      0.000013      0.000000
     69 O     c      -0.000151      0.000077     -0.000023      0.000000
     70 O     c      -0.000151      0.000078     -0.000021      0.000000
     71 O     c       0.000177      0.000024     -0.000130      0.000000
     72 O     c       0.000000     -0.000012     -0.000002      0.000000
     73 Si    c      -0.000540      0.000101     -0.000063      0.000000
     74 Si    c       0.000206      0.000398     -0.000010      0.000000
     75 Si    c       0.000285      0.000237     -0.000009      0.000000
     76 Si    c       0.000284      0.000235     -0.000006      0.000000
     77 Si    c      -0.000548     -0.000102      0.000052      0.000000
     78 Si    c       0.000210     -0.000398      0.000010      0.000000
     79 O     c       0.000174      0.000026     -0.000129      0.000000
     80 O     c      -0.000010     -0.000001      0.000000      0.000000
     81 O     c      -0.000207      0.000106     -0.000057      0.000000
     82 O     c      -0.000270     -0.000057     -0.000116      0.000000
     83 O     c       0.000265      0.000057     -0.000114      0.000000
     84 O     c      -0.000208     -0.000107      0.000059      0.000000
     85 O     c      -0.000153     -0.000077     -0.000012      0.000000
     86 O     c      -0.000148     -0.000077     -0.000015      0.000000
     87 O     c      -0.000152     -0.000078      0.000022      0.000000
     88 O     c      -0.000154     -0.000076      0.000025      0.000000
     89 O     c       0.000186     -0.000033      0.000131      0.000000
     90 O     c       0.000011      0.000014      0.000026      0.000000
     91 Si    c       0.000540     -0.000104     -0.000078      0.000000
     92 Si    c      -0.000210     -0.000399     -0.000012      0.000000
     93 Si    c      -0.000283     -0.000237     -0.000014      0.000000
     94 Si    c      -0.000282     -0.000234     -0.000006      0.000000
     95 Si    c       0.000544      0.000100      0.000056      0.000000
     96 Si    c      -0.000211      0.000399      0.000010      0.000000
     97 O     c      -0.000161     -0.000025     -0.000121      0.000000
     98 O     c       0.000010     -0.000002      0.000000      0.000000
     99 O     c       0.000203     -0.000108     -0.000057      0.000000
    100 O     c       0.000264      0.000057     -0.000115      0.000000
    101 O     c      -0.000266     -0.000057     -0.000114      0.000000
    102 O     c       0.000211      0.000106      0.000059      0.000000
    103 O     c       0.000155      0.000078     -0.000013      0.000000
    104 O     c       0.000150      0.000077     -0.000014      0.000000
    105 O     c       0.000151      0.000078      0.000021      0.000000
    106 O     c       0.000151      0.000075      0.000027      0.000000
    107 O     c      -0.000181      0.000029      0.000130      0.000000
    108 O     c      -0.000005     -0.000012      0.000012      0.000000
    109 Si    c       0.000537      0.000094      0.000059      0.000000
    110 Si    c      -0.000213      0.000403      0.000010      0.000000
    111 Si    c      -0.000283      0.000235      0.000008      0.000000
    112 Si    c      -0.000286      0.000237      0.000005      0.000000
    113 Si    c       0.000537     -0.000096     -0.000062      0.000000
    114 Si    c      -0.000212     -0.000405     -0.000014      0.000000
    115 O     c      -0.000177      0.000024      0.000130      0.000000
    116 O     c       0.000011      0.000001      0.000001      0.000000
    117 O     c       0.000205      0.000105      0.000052      0.000000
    118 O     c       0.000265     -0.000056      0.000113      0.000000
    119 O     c      -0.000272      0.000053      0.000113      0.000000
    120 O     c       0.000209     -0.000103     -0.000055      0.000000
    121 O     c       0.000152     -0.000079      0.000016      0.000000
    122 O     c       0.000154     -0.000076      0.000016      0.000000
    123 O     c       0.000155     -0.000077     -0.000021      0.000000
    124 O     c       0.000151     -0.000078     -0.000023      0.000000
    125 O     c      -0.000178     -0.000026     -0.000130      0.000000
    126 O     c       0.000002      0.000011      0.000002      0.000000
    127 Si    c      -0.000540     -0.000094      0.000058      0.000000
    128 Si    c       0.000214     -0.000403      0.000004      0.000000
    129 Si    c       0.000283     -0.000235      0.000007      0.000000
    130 Si    c       0.000288     -0.000236      0.000005      0.000000
    131 Si    c      -0.000537      0.000094     -0.000061      0.000000
    132 Si    c       0.000213      0.000404     -0.000015      0.000000
    133 O     c       0.000181     -0.000025      0.000133      0.000000
    134 O     c      -0.000011      0.000001      0.000002      0.000000
    135 O     c      -0.000211     -0.000108      0.000060      0.000000
    136 O     c      -0.000267      0.000057      0.000116      0.000000
    137 O     c       0.000270     -0.000055      0.000115      0.000000
    138 O     c      -0.000209      0.000101     -0.000054      0.000000
    139 O     c      -0.000151      0.000077      0.000014      0.000000
    140 O     c      -0.000155      0.000076      0.000016      0.000000
    141 O     c      -0.000153      0.000077     -0.000022      0.000000
    142 O     c      -0.000151      0.000078     -0.000023      0.000000
    143 O     c       0.000178      0.000025     -0.000131      0.000000
    144 O     c      -0.000000     -0.000012      0.000002      0.000000
    145 Si    c      -0.000544      0.000100     -0.000056      0.000000
    146 Si    c       0.000225      0.000400     -0.000011      0.000000
    147 Si    c       0.000286      0.000237     -0.000005      0.000000
    148 Si    c       0.000301      0.000239     -0.000015      0.000000
    149 Si    c      -0.000540     -0.000104      0.000078      0.000000
    150 Si    c       0.000219     -0.000405      0.000011      0.000000
    151 O     c       0.000181      0.000029     -0.000130      0.000000
    152 O     c      -0.000010      0.000007     -0.000002      0.000000
    153 O     c      -0.000211      0.000111     -0.000060      0.000000
    154 O     c      -0.000270     -0.000055     -0.000115      0.000000
    155 O     c       0.000268      0.000056     -0.000114      0.000000
    156 O     c      -0.000213     -0.000107      0.000053      0.000000
    157 O     c      -0.000154     -0.000076     -0.000016      0.000000
    158 O     c      -0.000157     -0.000079     -0.000015      0.000000
    159 O     c      -0.000164     -0.000081      0.000029      0.000000
    160 O     c      -0.000155     -0.000077      0.000021      0.000000
    161 O     c       0.000161     -0.000025      0.000121      0.000000
    162 O     c      -0.000011      0.000014     -0.000026      0.000000
    163 Si    c       0.000548     -0.000102     -0.000052      0.000000
    164 Si    c      -0.000219     -0.000405     -0.000011      0.000000
    165 Si    c      -0.000288     -0.000236     -0.000005      0.000000
    166 Si    c      -0.000290     -0.000233     -0.000009      0.000000
    167 Si    c       0.000540      0.000101      0.000063      0.000000
    168 Si    c      -0.000225      0.000400      0.000011      0.000000
    169 O     c      -0.000186     -0.000033     -0.000131      0.000000
    170 O     c       0.000010      0.000007      0.000002      0.000000
    171 O     c       0.000213     -0.000107     -0.000053      0.000000
    172 O     c       0.000272      0.000053     -0.000113      0.000000
    173 O     c      -0.000264     -0.000055     -0.000112      0.000000
    174 O     c       0.000211      0.000111      0.000060      0.000000
    175 O     c       0.000155      0.000076     -0.000016      0.000000
    176 O     c       0.000159      0.000077     -0.000014      0.000000
    177 O     c       0.000157      0.000076      0.000023      0.000000
    178 O     c       0.000153      0.000077      0.000022      0.000000
    179 O     c      -0.000174      0.000026      0.000129      0.000000
    180 O     c       0.000005     -0.000012     -0.000012      0.000000
    181 Si    c       0.000555      0.000083      0.000063      0.000000
    182 Si    c      -0.000214      0.000404      0.000015      0.000000
    183 Si    c      -0.000301      0.000239      0.000015      0.000000
    184 Si    c      -0.000285      0.000237      0.000009      0.000000
    185 Si    c       0.000539     -0.000095     -0.000060      0.000000
    186 Si    c      -0.000214     -0.000403     -0.000004      0.000000
    187 O     c      -0.000189      0.000034      0.000134      0.000000
    188 O     c       0.000011      0.000001     -0.000002      0.000000
    189 O     c       0.000209      0.000101      0.000053      0.000000
    190 O     c       0.000264     -0.000055      0.000112      0.000000
    191 O     c      -0.000264      0.000057      0.000115      0.000000
    192 O     c       0.000211     -0.000108     -0.000060      0.000000
    193 O     c       0.000157     -0.000079      0.000015      0.000000
    194 O     c       0.000153     -0.000077      0.000012      0.000000
    195 O     c       0.000154     -0.000076     -0.000025      0.000000
    196 O     c       0.000164     -0.000081     -0.000029      0.000000
    197 O     c      -0.000177     -0.000028     -0.000129      0.000000
    198 O     c      -0.000000      0.000010      0.000000      0.000000
    199 Si    c      -0.000539     -0.000095      0.000060      0.000000
    200 Si    c       0.000212     -0.000405      0.000014      0.000000
    201 Si    c       0.000290     -0.000233      0.000009      0.000000
    202 Si    c       0.000283     -0.000237      0.000014      0.000000
    203 Si    c      -0.000555      0.000083     -0.000063      0.000000
    204 Si    c       0.000213      0.000403     -0.000010      0.000000
    205 O     c       0.000177     -0.000028      0.000129      0.000000
    206 O     c      -0.000011      0.000001     -0.000001      0.000000
    207 O     c      -0.000209     -0.000103      0.000055      0.000000
    208 O     c      -0.000268      0.000056      0.000114      0.000000
    209 O     c       0.000270     -0.000057      0.000116      0.000000
    210 O     c      -0.000205      0.000105     -0.000052      0.000000
    211 O     c      -0.000159      0.000077      0.000014      0.000000
    212 O     c      -0.000155      0.000078      0.000013      0.000000
    213 O     c      -0.000151      0.000075     -0.000027      0.000000
    214 O     c      -0.000157      0.000076     -0.000023      0.000000
    215 O     c       0.000189      0.000034     -0.000134      0.000000
    216 O     c       0.000000      0.000000      0.000000      0.000000
    217 O     s      -0.000088     -0.000053      0.000050      0.000000
    218 O     s       0.000257      0.000000      0.000002      0.000000
    219 O     s       0.000171     -0.000009      0.000091      0.000000
    220 O     s       0.000157     -0.000029      0.000089      0.000000
    221 O     s      -0.000155      0.000024      0.000090      0.000000
    222 O     s       0.000171      0.000010     -0.000089      0.000000
    223 O     s      -0.000017     -0.000048      0.000034      0.000000
    224 O     s      -0.000016     -0.000044      0.000031      0.000000
    225 O     s      -0.000075      0.000007     -0.000032      0.000000
    226 O     s      -0.000073      0.000005     -0.000032      0.000000
    227 O     s      -0.000088      0.000054     -0.000047      0.000000
    228 O     s       0.000000      0.000014      0.000000      0.000000
    229 O     s       0.000088      0.000054      0.000047      0.000000
    230 O     s      -0.000255     -0.000000      0.000001      0.000000
    231 O     s      -0.000169      0.000009      0.000092      0.000000
    232 O     s      -0.000156      0.000027      0.000088      0.000000
    233 O     s       0.000154     -0.000026      0.000090      0.000000
    234 O     s      -0.000172     -0.000009     -0.000090      0.000000
    235 O     s       0.000017      0.000047      0.000035      0.000000
    236 O     s       0.000016      0.000046      0.000034      0.000000
    237 O     s       0.000076     -0.000009     -0.000032      0.000000
    238 O     s       0.000073     -0.000006     -0.000031      0.000000
    239 O     s       0.000088     -0.000053     -0.000050      0.000000
    240 O     s      -0.000000     -0.000013      0.000000      0.000000
    241 O     s       0.000088     -0.000049     -0.000051      0.000000
    242 O     s      -0.000255     -0.000001     -0.000000      0.000000
    243 O     s      -0.000172     -0.000003     -0.000090      0.000000
    244 O     s      -0.000156     -0.000027     -0.000089      0.000000
    245 O     s       0.000156      0.000027     -0.000088      0.000000
    246 O     s      -0.000172      0.000003      0.000090      0.000000
    247 O     s       0.000020     -0.000045     -0.000035      0.000000
    248 O     s       0.000017     -0.000048     -0.000034      0.000000
    249 O     s       0.000073      0.000005      0.000032      0.000000
    250 O     s       0.000075      0.000007      0.000032      0.000000
    251 O     s       0.000090      0.000049      0.000051      0.000000
    252 O     s       0.000001      0.000004      0.000001      0.000000
    253 O     s      -0.000089      0.000049     -0.000050      0.000000
    254 O     s       0.000255     -0.000001      0.000000      0.000000
    255 O     s       0.000172      0.000003     -0.000090      0.000000
    256 O     s       0.000156      0.000024     -0.000089      0.000000
    257 O     s      -0.000157     -0.000029     -0.000089      0.000000
    258 O     s       0.000172     -0.000003      0.000090      0.000000
    259 O     s      -0.000019      0.000044     -0.000036      0.000000
    260 O     s      -0.000017      0.000047     -0.000035      0.000000
    261 O     s      -0.000073     -0.000006      0.000031      0.000000
    262 O     s      -0.000075     -0.000007      0.000032      0.000000
    263 O     s      -0.000089     -0.000048      0.000051      0.000000
    264 O     s      -0.000000     -0.000005      0.000000      0.000000
    265 O     s      -0.000089     -0.000054      0.000048      0.000000
    266 O     s       0.000255     -0.000000     -0.000001      0.000000
    267 O     s       0.000172     -0.000009      0.000090      0.000000
    268 O     s       0.000159     -0.000029      0.000089      0.000000
    269 O     s      -0.000156      0.000024      0.000089      0.000000
    270 O     s       0.000169      0.000009     -0.000092      0.000000
    271 O     s      -0.000015     -0.000049      0.000034      0.000000
    272 O     s      -0.000020     -0.000045      0.000035      0.000000
    273 O     s      -0.000075      0.000007     -0.000032      0.000000
    274 O     s      -0.000074      0.000006     -0.000034      0.000000
    275 O     s      -0.000090      0.000054     -0.000052      0.000000
    276 O     s      -0.000004      0.000011     -0.000004      0.000000
    277 O     s       0.000090      0.000055      0.000043      0.000000
    278 O     s      -0.000257      0.000000     -0.000002      0.000000
    279 O     s      -0.000171      0.000010      0.000089      0.000000
    280 O     s      -0.000156      0.000025      0.000089      0.000000
    281 O     s       0.000156     -0.000027      0.000089      0.000000
    282 O     s      -0.000171     -0.000009     -0.000091      0.000000
    283 O     s       0.000012      0.000048      0.000032      0.000000
    284 O     s       0.000019      0.000044      0.000036      0.000000
    285 O     s       0.000075     -0.000007     -0.000032      0.000000
    286 O     s       0.000075     -0.000006     -0.000032      0.000000
    287 O     s       0.000090     -0.000054     -0.000051      0.000000
    288 O     s       0.000002     -0.000012     -0.000001      0.000000
    289 O     s       0.000089     -0.000048     -0.000051      0.000000
    290 O     s      -0.000259     -0.000001     -0.000003      0.000000
    291 O     s      -0.000173     -0.000007     -0.000089      0.000000
    292 O     s      -0.000154     -0.000026     -0.000090      0.000000
    293 O     s       0.000164      0.000028     -0.000089      0.000000
    294 O     s      -0.000173      0.000004      0.000089      0.000000
    295 O     s       0.000016     -0.000044     -0.000031      0.000000
    296 O     s       0.000015     -0.000049     -0.000035      0.000000
    297 O     s       0.000074      0.000006      0.000033      0.000000
    298 O     s       0.000075      0.000007      0.000032      0.000000
    299 O     s       0.000089      0.000049      0.000050      0.000000
    300 O     s      -0.000001      0.000004     -0.000001      0.000000
    301 O     s      -0.000090      0.000049     -0.000051      0.000000
    302 O     s       0.000260     -0.000001     -0.000005      0.000000
    303 O     s       0.000173      0.000004     -0.000090      0.000000
    304 O     s       0.000155      0.000025     -0.000090      0.000000
    305 O     s      -0.000158     -0.000029     -0.000090      0.000000
    306 O     s       0.000173     -0.000004      0.000090      0.000000
    307 O     s      -0.000016      0.000046     -0.000034      0.000000
    308 O     s      -0.000013      0.000049     -0.000034      0.000000
    309 O     s      -0.000078     -0.000009      0.000031      0.000000
    310 O     s      -0.000076     -0.000009      0.000032      0.000000
    311 O     s      -0.000088     -0.000049      0.000051      0.000000
    312 O     s       0.000000     -0.000005     -0.000000      0.000000
    313 O     s      -0.000090     -0.000054      0.000051      0.000000
    314 O     s       0.000262     -0.000004      0.000002      0.000000
    315 O     s       0.000177     -0.000008      0.000090      0.000000
    316 O     s       0.000158     -0.000029      0.000090      0.000000
    317 O     s      -0.000156      0.000025      0.000090      0.000000
    318 O     s       0.000183      0.000007     -0.000087      0.000000
    319 O     s      -0.000015     -0.000049      0.000035      0.000000
    320 O     s      -0.000017     -0.000044      0.000033      0.000000
    321 O     s      -0.000065      0.000009     -0.000027      0.000000
    322 O     s      -0.000074      0.000006     -0.000033      0.000000
    323 O     s      -0.000090      0.000055     -0.000043      0.000000
    324 O     s       0.000004      0.000011      0.000004      0.000000
    325 O     s       0.000090      0.000054      0.000052      0.000000
    326 O     s      -0.000262     -0.000004     -0.000002      0.000000
    327 O     s      -0.000183      0.000007      0.000087      0.000000
    328 O     s      -0.000164      0.000028      0.000089      0.000000
    329 O     s       0.000162     -0.000029      0.000086      0.000000
    330 O     s      -0.000177     -0.000008     -0.000090      0.000000
    331 O     s       0.000013      0.000049      0.000034      0.000000
    332 O     s       0.000012      0.000044      0.000034      0.000000
    333 O     s       0.000072     -0.000009     -0.000033      0.000000
    334 O     s       0.000078     -0.000009     -0.000031      0.000000
    335 O     s       0.000089     -0.000054     -0.000048      0.000000
    336 O     s      -0.000002     -0.000012      0.000001      0.000000
    337 O     s       0.000090     -0.000053     -0.000052      0.000000
    338 O     s      -0.000260     -0.000001      0.000005      0.000000
    339 O     s      -0.000173     -0.000004     -0.000090      0.000000
    340 O     s      -0.000162     -0.000029     -0.000086      0.000000
    341 O     s       0.000156      0.000025     -0.000089      0.000000
    342 O     s      -0.000173      0.000004      0.000090      0.000000
    343 O     s       0.000017     -0.000044     -0.000033      0.000000
    344 O     s       0.000015     -0.000049     -0.000034      0.000000
    345 O     s       0.000074      0.000006      0.000034      0.000000
    346 O     s       0.000065      0.000009      0.000027      0.000000
    347 O     s       0.000088      0.000050      0.000050      0.000000
    348 O     s      -0.000000      0.000006      0.000000      0.000000
    349 O     s      -0.000088      0.000050     -0.000050      0.000000
    350 O     s       0.000259     -0.000001      0.000003      0.000000
    351 O     s       0.000173      0.000004     -0.000089      0.000000
    352 O     s       0.000156      0.000025     -0.000090      0.000000
    353 O     s      -0.000159     -0.000029     -0.000089      0.000000
    354 O     s       0.000173     -0.000007      0.000089      0.000000
    355 O     s      -0.000012      0.000044     -0.000034      0.000000
    356 O     s      -0.000012      0.000048     -0.000032      0.000000
    357 O     s      -0.000075     -0.000006      0.000032      0.000000
    358 O     s      -0.000072     -0.000009      0.000033      0.000000
    359 O     s      -0.000090     -0.000053      0.000052      0.000000
    360 O     s       0.000000     -0.000017     -0.000000      0.000000
--------------------------------------------------------------------------------
  Maximum abs         0.000555      0.000405      0.000134      0.000000
--------------------------------------------------------------------------------


  Time to end of optimisation =       4.3876 seconds


  Peak dynamic memory used =       6.89 MB 


  Timing analysis for GULP :

--------------------------------------------------------------------------------
  Task / Subroutine                                          Time (Seconds)
--------------------------------------------------------------------------------
  Calculation of reciprocal space energy and derivatives          0.3539
  Calculation of real space energy and derivatives                2.2646
  Calculation of three-body energy and derivatives                0.1897
  Calculation and manipulation of Hessian matrix                  1.2057
  Calculation of matrix inversion                                 0.2276
  Symmetry generation of equivalent positions                     0.0003
  Global summation overhead                                       0.0990
--------------------------------------------------------------------------------
  Total CPU time                                                  4.3877
--------------------------------------------------------------------------------


  Dump file written as ReferenceDataBase/GAM-3.grs
  CIF file written as ReferenceDataBase/GAM-3_opt.cif


  Job Finished at 14:14.28 20th April      2023                               

