********************************************************************************
*                       GENERAL UTILITY LATTICE PROGRAM                        *
*                                 Julian Gale                                  *
*                       Curtin Institute for Computation                       *
*                    School of Molecular and Life Sciences                     *
*                    Curtin University, Western Australia                      *
********************************************************************************
* Version = 6.1.2 * Last modified =   3rd November 2022                        *
********************************************************************************
*  optimise     - perform optimisation run                                     *
*  conp         - constant pressure calculation                                *
*  nosymmetry   - turn off symmetry after initial structure generation         *
********************************************************************************

  Job Started  at 14:14.29 20th April      2023                               

  Number of CPUs =     8


  Total number of configurations input =      1

********************************************************************************
*  Input for Configuration =   1 : ReferenceDataBase/ITQ-69                    *
********************************************************************************

  Formula = Si96O192                                                    

  Number of irreducible atoms/shells =     480


  Total number atoms/shells =     480

  Dimensionality = 3               :  Bulk   



  Cartesian lattice vectors (Angstroms) :

       16.935100    0.000000    0.000000
        1.112996   18.152611    0.000000
        7.548433    0.293899   17.473388

  Cell parameters (Angstroms/Degrees):

  a =      16.9351    alpha =  87.7261
  b =      18.1867    beta  =  66.6388
  c =      19.0364    gamma =  86.4914

  Initial cell volume =        5371.604183 Angs**3

  Temperature of configuration =   0.00     K 

  Pressure of configuration =         0.000 GPa 

  Fractional coordinates of asymmetric unit :

--------------------------------------------------------------------------------
   No.  Atomic       x           y          z         Charge      Occupancy
        Label      (Frac)      (Frac)     (Frac)        (e)         (Frac)  
--------------------------------------------------------------------------------
      1 Si    c    0.340799 *  0.469872 *  0.435761 *   4.00000    1.000000    
      2 Si    c    0.159201 *  0.030128 *  0.064239 *   4.00000    1.000000    
      3 Si    c    0.302388 *  0.341082 *  0.038740 *   4.00000    1.000000    
      4 Si    c    0.197612 *  0.158918 *  0.461260 *   4.00000    1.000000    
      5 Si    c    0.333349 *  0.423696 *  0.160654 *   4.00000    1.000000    
      6 Si    c    0.166651 *  0.076304 *  0.339346 *   4.00000    1.000000    
      7 Si    c    0.258476 *  0.423663 *  0.334094 *   4.00000    1.000000    
      8 Si    c    0.241524 *  0.076337 *  0.165906 *   4.00000    1.000000    
      9 Si    c    0.162613 *  0.324534 *  0.474021 *   4.00000    1.000000    
     10 Si    c    0.337387 *  0.175466 *  0.025979 *   4.00000    1.000000    
     11 Si    c    0.021141 *  0.438795 *  0.052789 *   4.00000    1.000000    
     12 Si    c    0.478859 *  0.061205 *  0.447211 *   4.00000    1.000000    
     13 O     c    0.250000 *  0.000000 *  0.000000 *   0.86902    1.000000    
     14 O     c    0.365376 *  0.393765 *  0.471625 *   0.86902    1.000000    
     15 O     c    0.134624 *  0.106235 *  0.028375 *   0.86902    1.000000    
     16 O     c    0.211634 *  0.336099 *  0.030300 *   0.86902    1.000000    
     17 O     c    0.288366 *  0.163901 *  0.469700 *   0.86902    1.000000    
     18 O     c    0.350361 *  0.261233 *  0.031780 *   0.86902    1.000000    
     19 O     c    0.149639 *  0.238767 *  0.468220 *   0.86902    1.000000    
     20 O     c    0.285852 *  0.376762 *  0.120011 *   0.86902    1.000000    
     21 O     c    0.214148 *  0.123238 *  0.379989 *   0.86902    1.000000    
     22 O     c    0.436229 *  0.411433 *  0.121041 *   0.86902    1.000000    
     23 O     c    0.063771 *  0.088567 *  0.378960 *   0.86902    1.000000    
     24 O     c    0.301250 *  0.394974 *  0.247921 *   0.86902    1.000000    
     25 O     c    0.198750 *  0.105026 *  0.252079 *   0.86902    1.000000    
     26 O     c    0.331997 *  0.455189 *  0.356805 *   0.86902    1.000000    
     27 O     c    0.168003 *  0.044811 *  0.143195 *   0.86902    1.000000    
     28 O     c    0.186766 *  0.488965 *  0.343584 *   0.86902    1.000000    
     29 O     c    0.313234 *  0.011035 *  0.156416 *   0.86902    1.000000    
     30 O     c    0.217005 *  0.355229 *  0.389081 *   0.86902    1.000000    
     31 O     c    0.282995 *  0.144771 *  0.110919 *   0.86902    1.000000    
     32 O     c    0.069375 *  0.366252 *  0.005985 *   0.86902    1.000000    
     33 O     c    0.430625 *  0.133748 *  0.494015 *   0.86902    1.000000    
     34 O     c    0.084863 *  0.473329 *  0.085346 *   0.86902    1.000000    
     35 O     c    0.415137 *  0.026671 *  0.414654 *   0.86902    1.000000    
     36 O     c    0.000000 *  0.000000 *  0.000000 *   0.86902    1.000000    
     37 Si    c    0.340799 *  0.469872 *  0.935761 *   4.00000    1.000000    
     38 Si    c    0.159201 *  0.030128 *  0.564239 *   4.00000    1.000000    
     39 Si    c    0.302388 *  0.341082 *  0.538740 *   4.00000    1.000000    
     40 Si    c    0.197612 *  0.158918 *  0.961260 *   4.00000    1.000000    
     41 Si    c    0.333349 *  0.423696 *  0.660654 *   4.00000    1.000000    
     42 Si    c    0.166651 *  0.076304 *  0.839346 *   4.00000    1.000000    
     43 Si    c    0.258476 *  0.423663 *  0.834094 *   4.00000    1.000000    
     44 Si    c    0.241524 *  0.076337 *  0.665906 *   4.00000    1.000000    
     45 Si    c    0.162613 *  0.324534 *  0.974021 *   4.00000    1.000000    
     46 Si    c    0.337387 *  0.175466 *  0.525979 *   4.00000    1.000000    
     47 Si    c    0.021141 *  0.438795 *  0.552789 *   4.00000    1.000000    
     48 Si    c    0.478859 *  0.061205 *  0.947211 *   4.00000    1.000000    
     49 O     c    0.250000 *  0.000000 *  0.500000 *   0.86902    1.000000    
     50 O     c    0.365376 *  0.393765 *  0.971625 *   0.86902    1.000000    
     51 O     c    0.134624 *  0.106235 *  0.528375 *   0.86902    1.000000    
     52 O     c    0.211633 *  0.336099 *  0.530300 *   0.86902    1.000000    
     53 O     c    0.288367 *  0.163901 *  0.969700 *   0.86902    1.000000    
     54 O     c    0.350360 *  0.261233 *  0.531780 *   0.86902    1.000000    
     55 O     c    0.149640 *  0.238767 *  0.968220 *   0.86902    1.000000    
     56 O     c    0.285851 *  0.376762 *  0.620011 *   0.86902    1.000000    
     57 O     c    0.214149 *  0.123238 *  0.879989 *   0.86902    1.000000    
     58 O     c    0.436229 *  0.411433 *  0.621040 *   0.86902    1.000000    
     59 O     c    0.063771 *  0.088567 *  0.878960 *   0.86902    1.000000    
     60 O     c    0.301250 *  0.394974 *  0.747921 *   0.86902    1.000000    
     61 O     c    0.198750 *  0.105026 *  0.752079 *   0.86902    1.000000    
     62 O     c    0.331997 *  0.455189 *  0.856805 *   0.86902    1.000000    
     63 O     c    0.168003 *  0.044811 *  0.643195 *   0.86902    1.000000    
     64 O     c    0.186766 *  0.488965 *  0.843584 *   0.86902    1.000000    
     65 O     c    0.313234 *  0.011035 *  0.656416 *   0.86902    1.000000    
     66 O     c    0.217005 *  0.355229 *  0.889081 *   0.86902    1.000000    
     67 O     c    0.282995 *  0.144771 *  0.610919 *   0.86902    1.000000    
     68 O     c    0.069375 *  0.366252 *  0.505985 *   0.86902    1.000000    
     69 O     c    0.430625 *  0.133748 *  0.994016 *   0.86902    1.000000    
     70 O     c    0.084863 *  0.473329 *  0.585346 *   0.86902    1.000000    
     71 O     c    0.415137 *  0.026671 *  0.914654 *   0.86902    1.000000    
     72 O     c    0.000000 *  0.000000 *  0.500000 *   0.86902    1.000000    
     73 Si    c    0.340799 *  0.969872 *  0.435761 *   4.00000    1.000000    
     74 Si    c    0.159201 *  0.530128 *  0.064239 *   4.00000    1.000000    
     75 Si    c    0.302388 *  0.841082 *  0.038740 *   4.00000    1.000000    
     76 Si    c    0.197612 *  0.658918 *  0.461260 *   4.00000    1.000000    
     77 Si    c    0.333349 *  0.923696 *  0.160654 *   4.00000    1.000000    
     78 Si    c    0.166651 *  0.576304 *  0.339347 *   4.00000    1.000000    
     79 Si    c    0.258476 *  0.923663 *  0.334094 *   4.00000    1.000000    
     80 Si    c    0.241524 *  0.576337 *  0.165906 *   4.00000    1.000000    
     81 Si    c    0.162613 *  0.824534 *  0.474021 *   4.00000    1.000000    
     82 Si    c    0.337387 *  0.675466 *  0.025979 *   4.00000    1.000000    
     83 Si    c    0.021141 *  0.938795 *  0.052789 *   4.00000    1.000000    
     84 Si    c    0.478859 *  0.561205 *  0.447211 *   4.00000    1.000000    
     85 O     c    0.250000 *  0.500000 *  0.000000 *   0.86902    1.000000    
     86 O     c    0.365376 *  0.893765 *  0.471625 *   0.86902    1.000000    
     87 O     c    0.134624 *  0.606235 *  0.028375 *   0.86902    1.000000    
     88 O     c    0.211634 *  0.836099 *  0.030300 *   0.86902    1.000000    
     89 O     c    0.288366 *  0.663901 *  0.469700 *   0.86902    1.000000    
     90 O     c    0.350361 *  0.761233 *  0.031780 *   0.86902    1.000000    
     91 O     c    0.149639 *  0.738767 *  0.468220 *   0.86902    1.000000    
     92 O     c    0.285852 *  0.876762 *  0.120011 *   0.86902    1.000000    
     93 O     c    0.214148 *  0.623238 *  0.379989 *   0.86902    1.000000    
     94 O     c    0.436229 *  0.911433 *  0.121040 *   0.86902    1.000000    
     95 O     c    0.063771 *  0.588567 *  0.378960 *   0.86902    1.000000    
     96 O     c    0.301250 *  0.894974 *  0.247921 *   0.86902    1.000000    
     97 O     c    0.198750 *  0.605026 *  0.252079 *   0.86902    1.000000    
     98 O     c    0.331997 *  0.955189 *  0.356805 *   0.86902    1.000000    
     99 O     c    0.168003 *  0.544811 *  0.143195 *   0.86902    1.000000    
    100 O     c    0.186766 *  0.988965 *  0.343584 *   0.86902    1.000000    
    101 O     c    0.313234 *  0.511035 *  0.156416 *   0.86902    1.000000    
    102 O     c    0.217005 *  0.855229 *  0.389081 *   0.86902    1.000000    
    103 O     c    0.282995 *  0.644771 *  0.110919 *   0.86902    1.000000    
    104 O     c    0.069375 *  0.866252 *  0.005984 *   0.86902    1.000000    
    105 O     c    0.430625 *  0.633748 *  0.494016 *   0.86902    1.000000    
    106 O     c    0.084863 *  0.973329 *  0.085346 *   0.86902    1.000000    
    107 O     c    0.415137 *  0.526671 *  0.414654 *   0.86902    1.000000    
    108 O     c    0.000001 *  0.500000 *  0.999999 *   0.86902    1.000000    
    109 Si    c    0.340799 *  0.969872 *  0.935761 *   4.00000    1.000000    
    110 Si    c    0.159201 *  0.530129 *  0.564239 *   4.00000    1.000000    
    111 Si    c    0.302388 *  0.841082 *  0.538740 *   4.00000    1.000000    
    112 Si    c    0.197612 *  0.658918 *  0.961260 *   4.00000    1.000000    
    113 Si    c    0.333349 *  0.923696 *  0.660654 *   4.00000    1.000000    
    114 Si    c    0.166651 *  0.576305 *  0.839347 *   4.00000    1.000000    
    115 Si    c    0.258476 *  0.923663 *  0.834094 *   4.00000    1.000000    
    116 Si    c    0.241524 *  0.576337 *  0.665906 *   4.00000    1.000000    
    117 Si    c    0.162613 *  0.824534 *  0.974021 *   4.00000    1.000000    
    118 Si    c    0.337387 *  0.675466 *  0.525979 *   4.00000    1.000000    
    119 Si    c    0.021141 *  0.938795 *  0.552789 *   4.00000    1.000000    
    120 Si    c    0.478859 *  0.561205 *  0.947211 *   4.00000    1.000000    
    121 O     c    0.250000 *  0.500000 *  0.500000 *   0.86902    1.000000    
    122 O     c    0.365376 *  0.893765 *  0.971625 *   0.86902    1.000000    
    123 O     c    0.134624 *  0.606235 *  0.528375 *   0.86902    1.000000    
    124 O     c    0.211634 *  0.836099 *  0.530300 *   0.86902    1.000000    
    125 O     c    0.288366 *  0.663901 *  0.969700 *   0.86902    1.000000    
    126 O     c    0.350361 *  0.761233 *  0.531780 *   0.86902    1.000000    
    127 O     c    0.149639 *  0.738767 *  0.968220 *   0.86902    1.000000    
    128 O     c    0.285852 *  0.876762 *  0.620011 *   0.86902    1.000000    
    129 O     c    0.214148 *  0.623238 *  0.879989 *   0.86902    1.000000    
    130 O     c    0.436229 *  0.911433 *  0.621041 *   0.86902    1.000000    
    131 O     c    0.063771 *  0.588567 *  0.878960 *   0.86902    1.000000    
    132 O     c    0.301250 *  0.894974 *  0.747921 *   0.86902    1.000000    
    133 O     c    0.198750 *  0.605026 *  0.752079 *   0.86902    1.000000    
    134 O     c    0.331997 *  0.955189 *  0.856805 *   0.86902    1.000000    
    135 O     c    0.168003 *  0.544811 *  0.643195 *   0.86902    1.000000    
    136 O     c    0.186766 *  0.988965 *  0.843584 *   0.86902    1.000000    
    137 O     c    0.313234 *  0.511035 *  0.656416 *   0.86902    1.000000    
    138 O     c    0.217005 *  0.855229 *  0.889081 *   0.86902    1.000000    
    139 O     c    0.282995 *  0.644771 *  0.610919 *   0.86902    1.000000    
    140 O     c    0.069375 *  0.866252 *  0.505984 *   0.86902    1.000000    
    141 O     c    0.430625 *  0.633748 *  0.994016 *   0.86902    1.000000    
    142 O     c    0.084863 *  0.973329 *  0.585346 *   0.86902    1.000000    
    143 O     c    0.415137 *  0.526671 *  0.914654 *   0.86902    1.000000    
    144 O     c    0.000000 *  0.500000 *  0.500000 *   0.86902    1.000000    
    145 Si    c    0.840799 *  0.469872 *  0.435761 *   4.00000    1.000000    
    146 Si    c    0.659201 *  0.030128 *  0.064239 *   4.00000    1.000000    
    147 Si    c    0.802388 *  0.341082 *  0.038740 *   4.00000    1.000000    
    148 Si    c    0.697612 *  0.158918 *  0.461260 *   4.00000    1.000000    
    149 Si    c    0.833349 *  0.423696 *  0.160654 *   4.00000    1.000000    
    150 Si    c    0.666651 *  0.076304 *  0.339346 *   4.00000    1.000000    
    151 Si    c    0.758476 *  0.423663 *  0.334094 *   4.00000    1.000000    
    152 Si    c    0.741524 *  0.076337 *  0.165906 *   4.00000    1.000000    
    153 Si    c    0.662613 *  0.324534 *  0.474021 *   4.00000    1.000000    
    154 Si    c    0.837387 *  0.175466 *  0.025979 *   4.00000    1.000000    
    155 Si    c    0.521141 *  0.438795 *  0.052789 *   4.00000    1.000000    
    156 Si    c    0.978859 *  0.061205 *  0.447211 *   4.00000    1.000000    
    157 O     c    0.750000 *  0.000000 *  0.000000 *   0.86902    1.000000    
    158 O     c    0.865376 *  0.393765 *  0.471625 *   0.86902    1.000000    
    159 O     c    0.634624 *  0.106235 *  0.028375 *   0.86902    1.000000    
    160 O     c    0.711634 *  0.336099 *  0.030300 *   0.86902    1.000000    
    161 O     c    0.788366 *  0.163901 *  0.469700 *   0.86902    1.000000    
    162 O     c    0.850361 *  0.261233 *  0.031780 *   0.86902    1.000000    
    163 O     c    0.649639 *  0.238767 *  0.468220 *   0.86902    1.000000    
    164 O     c    0.785851 *  0.376762 *  0.120011 *   0.86902    1.000000    
    165 O     c    0.714149 *  0.123238 *  0.379989 *   0.86902    1.000000    
    166 O     c    0.936229 *  0.411433 *  0.121040 *   0.86902    1.000000    
    167 O     c    0.563771 *  0.088567 *  0.378960 *   0.86902    1.000000    
    168 O     c    0.801250 *  0.394974 *  0.247921 *   0.86902    1.000000    
    169 O     c    0.698750 *  0.105026 *  0.252079 *   0.86902    1.000000    
    170 O     c    0.831997 *  0.455189 *  0.356805 *   0.86902    1.000000    
    171 O     c    0.668003 *  0.044811 *  0.143195 *   0.86902    1.000000    
    172 O     c    0.686766 *  0.488965 *  0.343584 *   0.86902    1.000000    
    173 O     c    0.813234 *  0.011035 *  0.156416 *   0.86902    1.000000    
    174 O     c    0.717005 *  0.355229 *  0.389081 *   0.86902    1.000000    
    175 O     c    0.782995 *  0.144771 *  0.110919 *   0.86902    1.000000    
    176 O     c    0.569375 *  0.366252 *  0.005985 *   0.86902    1.000000    
    177 O     c    0.930625 *  0.133748 *  0.494015 *   0.86902    1.000000    
    178 O     c    0.584863 *  0.473329 *  0.085346 *   0.86902    1.000000    
    179 O     c    0.915137 *  0.026671 *  0.414654 *   0.86902    1.000000    
    180 O     c    0.500000 *  0.000000 *  1.000000 *   0.86902    1.000000    
    181 Si    c    0.840799 *  0.469872 *  0.935761 *   4.00000    1.000000    
    182 Si    c    0.659201 *  0.030128 *  0.564239 *   4.00000    1.000000    
    183 Si    c    0.802388 *  0.341082 *  0.538740 *   4.00000    1.000000    
    184 Si    c    0.697612 *  0.158918 *  0.961260 *   4.00000    1.000000    
    185 Si    c    0.833349 *  0.423696 *  0.660654 *   4.00000    1.000000    
    186 Si    c    0.666651 *  0.076304 *  0.839346 *   4.00000    1.000000    
    187 Si    c    0.758476 *  0.423663 *  0.834094 *   4.00000    1.000000    
    188 Si    c    0.741524 *  0.076337 *  0.665906 *   4.00000    1.000000    
    189 Si    c    0.662613 *  0.324534 *  0.974021 *   4.00000    1.000000    
    190 Si    c    0.837387 *  0.175466 *  0.525979 *   4.00000    1.000000    
    191 Si    c    0.521141 *  0.438795 *  0.552789 *   4.00000    1.000000    
    192 Si    c    0.978859 *  0.061205 *  0.947211 *   4.00000    1.000000    
    193 O     c    0.750000 *  0.000000 *  0.500000 *   0.86902    1.000000    
    194 O     c    0.865376 *  0.393765 *  0.971625 *   0.86902    1.000000    
    195 O     c    0.634624 *  0.106235 *  0.528375 *   0.86902    1.000000    
    196 O     c    0.711634 *  0.336099 *  0.530300 *   0.86902    1.000000    
    197 O     c    0.788366 *  0.163901 *  0.969700 *   0.86902    1.000000    
    198 O     c    0.850361 *  0.261233 *  0.531780 *   0.86902    1.000000    
    199 O     c    0.649639 *  0.238767 *  0.968220 *   0.86902    1.000000    
    200 O     c    0.785852 *  0.376762 *  0.620011 *   0.86902    1.000000    
    201 O     c    0.714148 *  0.123238 *  0.879989 *   0.86902    1.000000    
    202 O     c    0.936229 *  0.411433 *  0.621041 *   0.86902    1.000000    
    203 O     c    0.563771 *  0.088567 *  0.878960 *   0.86902    1.000000    
    204 O     c    0.801250 *  0.394974 *  0.747921 *   0.86902    1.000000    
    205 O     c    0.698750 *  0.105026 *  0.752079 *   0.86902    1.000000    
    206 O     c    0.831997 *  0.455189 *  0.856805 *   0.86902    1.000000    
    207 O     c    0.668003 *  0.044811 *  0.643195 *   0.86902    1.000000    
    208 O     c    0.686766 *  0.488965 *  0.843584 *   0.86902    1.000000    
    209 O     c    0.813234 *  0.011035 *  0.656416 *   0.86902    1.000000    
    210 O     c    0.717005 *  0.355229 *  0.889081 *   0.86902    1.000000    
    211 O     c    0.782995 *  0.144771 *  0.610919 *   0.86902    1.000000    
    212 O     c    0.569375 *  0.366252 *  0.505985 *   0.86902    1.000000    
    213 O     c    0.930625 *  0.133748 *  0.994015 *   0.86902    1.000000    
    214 O     c    0.584863 *  0.473329 *  0.585346 *   0.86902    1.000000    
    215 O     c    0.915137 *  0.026671 *  0.914654 *   0.86902    1.000000    
    216 O     c    0.499999 *  0.000000 *  0.500001 *   0.86902    1.000000    
    217 Si    c    0.840799 *  0.969872 *  0.435761 *   4.00000    1.000000    
    218 Si    c    0.659201 *  0.530129 *  0.064239 *   4.00000    1.000000    
    219 Si    c    0.802388 *  0.841082 *  0.038740 *   4.00000    1.000000    
    220 Si    c    0.697612 *  0.658918 *  0.461260 *   4.00000    1.000000    
    221 Si    c    0.833349 *  0.923696 *  0.160654 *   4.00000    1.000000    
    222 Si    c    0.666651 *  0.576305 *  0.339347 *   4.00000    1.000000    
    223 Si    c    0.758476 *  0.923663 *  0.334094 *   4.00000    1.000000    
    224 Si    c    0.741524 *  0.576337 *  0.165906 *   4.00000    1.000000    
    225 Si    c    0.662613 *  0.824534 *  0.474021 *   4.00000    1.000000    
    226 Si    c    0.837387 *  0.675466 *  0.025979 *   4.00000    1.000000    
    227 Si    c    0.521141 *  0.938795 *  0.052789 *   4.00000    1.000000    
    228 Si    c    0.978859 *  0.561205 *  0.447211 *   4.00000    1.000000    
    229 O     c    0.750000 *  0.500000 *  0.000000 *   0.86902    1.000000    
    230 O     c    0.865376 *  0.893765 *  0.471625 *   0.86902    1.000000    
    231 O     c    0.634624 *  0.606235 *  0.028375 *   0.86902    1.000000    
    232 O     c    0.711634 *  0.836099 *  0.030300 *   0.86902    1.000000    
    233 O     c    0.788366 *  0.663901 *  0.469700 *   0.86902    1.000000    
    234 O     c    0.850361 *  0.761233 *  0.031780 *   0.86902    1.000000    
    235 O     c    0.649639 *  0.738767 *  0.468220 *   0.86902    1.000000    
    236 O     c    0.785852 *  0.876762 *  0.120011 *   0.86902    1.000000    
    237 O     c    0.714148 *  0.623238 *  0.379989 *   0.86902    1.000000    
    238 O     c    0.936229 *  0.911433 *  0.121040 *   0.86902    1.000000    
    239 O     c    0.563771 *  0.588567 *  0.378960 *   0.86902    1.000000    
    240 O     c    0.801250 *  0.894974 *  0.247921 *   0.86902    1.000000    
    241 O     c    0.698750 *  0.605026 *  0.252079 *   0.86902    1.000000    
    242 O     c    0.831997 *  0.955189 *  0.356805 *   0.86902    1.000000    
    243 O     c    0.668003 *  0.544811 *  0.143195 *   0.86902    1.000000    
    244 O     c    0.686766 *  0.988965 *  0.343584 *   0.86902    1.000000    
    245 O     c    0.813234 *  0.511035 *  0.156416 *   0.86902    1.000000    
    246 O     c    0.717005 *  0.855229 *  0.389081 *   0.86902    1.000000    
    247 O     c    0.782995 *  0.644771 *  0.110919 *   0.86902    1.000000    
    248 O     c    0.569375 *  0.866252 *  0.005985 *   0.86902    1.000000    
    249 O     c    0.930625 *  0.633748 *  0.494016 *   0.86902    1.000000    
    250 O     c    0.584863 *  0.973329 *  0.085346 *   0.86902    1.000000    
    251 O     c    0.915137 *  0.526671 *  0.414654 *   0.86902    1.000000    
    252 O     c    0.499999 *  0.500000 *  0.000000 *   0.86902    1.000000    
    253 Si    c    0.840799 *  0.969872 *  0.935761 *   4.00000    1.000000    
    254 Si    c    0.659201 *  0.530128 *  0.564239 *   4.00000    1.000000    
    255 Si    c    0.802388 *  0.841082 *  0.538740 *   4.00000    1.000000    
    256 Si    c    0.697612 *  0.658918 *  0.961260 *   4.00000    1.000000    
    257 Si    c    0.833349 *  0.923696 *  0.660654 *   4.00000    1.000000    
    258 Si    c    0.666651 *  0.576304 *  0.839347 *   4.00000    1.000000    
    259 Si    c    0.758476 *  0.923663 *  0.834094 *   4.00000    1.000000    
    260 Si    c    0.741524 *  0.576337 *  0.665906 *   4.00000    1.000000    
    261 Si    c    0.662613 *  0.824534 *  0.974021 *   4.00000    1.000000    
    262 Si    c    0.837387 *  0.675466 *  0.525979 *   4.00000    1.000000    
    263 Si    c    0.521141 *  0.938795 *  0.552789 *   4.00000    1.000000    
    264 Si    c    0.978859 *  0.561205 *  0.947211 *   4.00000    1.000000    
    265 O     c    0.750000 *  0.500000 *  0.500000 *   0.86902    1.000000    
    266 O     c    0.865376 *  0.893765 *  0.971625 *   0.86902    1.000000    
    267 O     c    0.634624 *  0.606235 *  0.528375 *   0.86902    1.000000    
    268 O     c    0.711634 *  0.836099 *  0.530300 *   0.86902    1.000000    
    269 O     c    0.788366 *  0.663901 *  0.969700 *   0.86902    1.000000    
    270 O     c    0.850360 *  0.761233 *  0.531780 *   0.86902    1.000000    
    271 O     c    0.649640 *  0.738767 *  0.968220 *   0.86902    1.000000    
    272 O     c    0.785852 *  0.876762 *  0.620011 *   0.86902    1.000000    
    273 O     c    0.714149 *  0.623238 *  0.879989 *   0.86902    1.000000    
    274 O     c    0.936229 *  0.911433 *  0.621040 *   0.86902    1.000000    
    275 O     c    0.563771 *  0.588567 *  0.878960 *   0.86902    1.000000    
    276 O     c    0.801250 *  0.894974 *  0.747921 *   0.86902    1.000000    
    277 O     c    0.698750 *  0.605026 *  0.752079 *   0.86902    1.000000    
    278 O     c    0.831997 *  0.955189 *  0.856805 *   0.86902    1.000000    
    279 O     c    0.668003 *  0.544811 *  0.643195 *   0.86902    1.000000    
    280 O     c    0.686766 *  0.988965 *  0.843584 *   0.86902    1.000000    
    281 O     c    0.813234 *  0.511035 *  0.656416 *   0.86902    1.000000    
    282 O     c    0.717005 *  0.855229 *  0.889081 *   0.86902    1.000000    
    283 O     c    0.782995 *  0.644771 *  0.610919 *   0.86902    1.000000    
    284 O     c    0.569375 *  0.866252 *  0.505984 *   0.86902    1.000000    
    285 O     c    0.930625 *  0.633748 *  0.994016 *   0.86902    1.000000    
    286 O     c    0.584863 *  0.973329 *  0.585346 *   0.86902    1.000000    
    287 O     c    0.915137 *  0.526671 *  0.914654 *   0.86902    1.000000    
    288 O     c    0.500000    0.500000    0.500000     0.86902    1.000000    
    289 O     s    0.250000 *  0.000000 *  0.000000 *  -2.86902    1.000000    
    290 O     s    0.365376 *  0.393765 *  0.471625 *  -2.86902    1.000000    
    291 O     s    0.134624 *  0.106235 *  0.028375 *  -2.86902    1.000000    
    292 O     s    0.211634 *  0.336099 *  0.030300 *  -2.86902    1.000000    
    293 O     s    0.288366 *  0.163901 *  0.469700 *  -2.86902    1.000000    
    294 O     s    0.350361 *  0.261233 *  0.031780 *  -2.86902    1.000000    
    295 O     s    0.149639 *  0.238767 *  0.468220 *  -2.86902    1.000000    
    296 O     s    0.285852 *  0.376762 *  0.120011 *  -2.86902    1.000000    
    297 O     s    0.214148 *  0.123238 *  0.379989 *  -2.86902    1.000000    
    298 O     s    0.436229 *  0.411433 *  0.121041 *  -2.86902    1.000000    
    299 O     s    0.063771 *  0.088567 *  0.378960 *  -2.86902    1.000000    
    300 O     s    0.301250 *  0.394974 *  0.247921 *  -2.86902    1.000000    
    301 O     s    0.198750 *  0.105026 *  0.252079 *  -2.86902    1.000000    
    302 O     s    0.331997 *  0.455189 *  0.356805 *  -2.86902    1.000000    
    303 O     s    0.168003 *  0.044811 *  0.143195 *  -2.86902    1.000000    
    304 O     s    0.186766 *  0.488965 *  0.343584 *  -2.86902    1.000000    
    305 O     s    0.313234 *  0.011035 *  0.156416 *  -2.86902    1.000000    
    306 O     s    0.217005 *  0.355229 *  0.389081 *  -2.86902    1.000000    
    307 O     s    0.282995 *  0.144771 *  0.110919 *  -2.86902    1.000000    
    308 O     s    0.069375 *  0.366252 *  0.005985 *  -2.86902    1.000000    
    309 O     s    0.430625 *  0.133748 *  0.494015 *  -2.86902    1.000000    
    310 O     s    0.084863 *  0.473329 *  0.085346 *  -2.86902    1.000000    
    311 O     s    0.415137 *  0.026671 *  0.414654 *  -2.86902    1.000000    
    312 O     s    0.000000 *  0.000000 *  0.000000 *  -2.86902    1.000000    
    313 O     s    0.250000 *  0.000000 *  0.500000 *  -2.86902    1.000000    
    314 O     s    0.365376 *  0.393765 *  0.971625 *  -2.86902    1.000000    
    315 O     s    0.134624 *  0.106235 *  0.528375 *  -2.86902    1.000000    
    316 O     s    0.211633 *  0.336099 *  0.530300 *  -2.86902    1.000000    
    317 O     s    0.288367 *  0.163901 *  0.969700 *  -2.86902    1.000000    
    318 O     s    0.350360 *  0.261233 *  0.531780 *  -2.86902    1.000000    
    319 O     s    0.149640 *  0.238767 *  0.968220 *  -2.86902    1.000000    
    320 O     s    0.285851 *  0.376762 *  0.620011 *  -2.86902    1.000000    
    321 O     s    0.214149 *  0.123238 *  0.879989 *  -2.86902    1.000000    
    322 O     s    0.436229 *  0.411433 *  0.621040 *  -2.86902    1.000000    
    323 O     s    0.063771 *  0.088567 *  0.878960 *  -2.86902    1.000000    
    324 O     s    0.301250 *  0.394974 *  0.747921 *  -2.86902    1.000000    
    325 O     s    0.198750 *  0.105026 *  0.752079 *  -2.86902    1.000000    
    326 O     s    0.331997 *  0.455189 *  0.856805 *  -2.86902    1.000000    
    327 O     s    0.168003 *  0.044811 *  0.643195 *  -2.86902    1.000000    
    328 O     s    0.186766 *  0.488965 *  0.843584 *  -2.86902    1.000000    
    329 O     s    0.313234 *  0.011035 *  0.656416 *  -2.86902    1.000000    
    330 O     s    0.217005 *  0.355229 *  0.889081 *  -2.86902    1.000000    
    331 O     s    0.282995 *  0.144771 *  0.610919 *  -2.86902    1.000000    
    332 O     s    0.069375 *  0.366252 *  0.505985 *  -2.86902    1.000000    
    333 O     s    0.430625 *  0.133748 *  0.994016 *  -2.86902    1.000000    
    334 O     s    0.084863 *  0.473329 *  0.585346 *  -2.86902    1.000000    
    335 O     s    0.415137 *  0.026671 *  0.914654 *  -2.86902    1.000000    
    336 O     s    0.000000 *  0.000000 *  0.500000 *  -2.86902    1.000000    
    337 O     s    0.250000 *  0.500000 *  0.000000 *  -2.86902    1.000000    
    338 O     s    0.365376 *  0.893765 *  0.471625 *  -2.86902    1.000000    
    339 O     s    0.134624 *  0.606235 *  0.028375 *  -2.86902    1.000000    
    340 O     s    0.211634 *  0.836099 *  0.030300 *  -2.86902    1.000000    
    341 O     s    0.288366 *  0.663901 *  0.469700 *  -2.86902    1.000000    
    342 O     s    0.350361 *  0.761233 *  0.031780 *  -2.86902    1.000000    
    343 O     s    0.149639 *  0.738767 *  0.468220 *  -2.86902    1.000000    
    344 O     s    0.285852 *  0.876762 *  0.120011 *  -2.86902    1.000000    
    345 O     s    0.214148 *  0.623238 *  0.379989 *  -2.86902    1.000000    
    346 O     s    0.436229 *  0.911433 *  0.121040 *  -2.86902    1.000000    
    347 O     s    0.063771 *  0.588567 *  0.378960 *  -2.86902    1.000000    
    348 O     s    0.301250 *  0.894974 *  0.247921 *  -2.86902    1.000000    
    349 O     s    0.198750 *  0.605026 *  0.252079 *  -2.86902    1.000000    
    350 O     s    0.331997 *  0.955189 *  0.356805 *  -2.86902    1.000000    
    351 O     s    0.168003 *  0.544811 *  0.143195 *  -2.86902    1.000000    
    352 O     s    0.186766 *  0.988965 *  0.343584 *  -2.86902    1.000000    
    353 O     s    0.313234 *  0.511035 *  0.156416 *  -2.86902    1.000000    
    354 O     s    0.217005 *  0.855229 *  0.389081 *  -2.86902    1.000000    
    355 O     s    0.282995 *  0.644771 *  0.110919 *  -2.86902    1.000000    
    356 O     s    0.069375 *  0.866252 *  0.005984 *  -2.86902    1.000000    
    357 O     s    0.430625 *  0.633748 *  0.494016 *  -2.86902    1.000000    
    358 O     s    0.084863 *  0.973329 *  0.085346 *  -2.86902    1.000000    
    359 O     s    0.415137 *  0.526671 *  0.414654 *  -2.86902    1.000000    
    360 O     s    0.000001 *  0.500000 *  0.999999 *  -2.86902    1.000000    
    361 O     s    0.250000 *  0.500000 *  0.500000 *  -2.86902    1.000000    
    362 O     s    0.365376 *  0.893765 *  0.971625 *  -2.86902    1.000000    
    363 O     s    0.134624 *  0.606235 *  0.528375 *  -2.86902    1.000000    
    364 O     s    0.211634 *  0.836099 *  0.530300 *  -2.86902    1.000000    
    365 O     s    0.288366 *  0.663901 *  0.969700 *  -2.86902    1.000000    
    366 O     s    0.350361 *  0.761233 *  0.531780 *  -2.86902    1.000000    
    367 O     s    0.149639 *  0.738767 *  0.968220 *  -2.86902    1.000000    
    368 O     s    0.285852 *  0.876762 *  0.620011 *  -2.86902    1.000000    
    369 O     s    0.214148 *  0.623238 *  0.879989 *  -2.86902    1.000000    
    370 O     s    0.436229 *  0.911433 *  0.621041 *  -2.86902    1.000000    
    371 O     s    0.063771 *  0.588567 *  0.878960 *  -2.86902    1.000000    
    372 O     s    0.301250 *  0.894974 *  0.747921 *  -2.86902    1.000000    
    373 O     s    0.198750 *  0.605026 *  0.752079 *  -2.86902    1.000000    
    374 O     s    0.331997 *  0.955189 *  0.856805 *  -2.86902    1.000000    
    375 O     s    0.168003 *  0.544811 *  0.643195 *  -2.86902    1.000000    
    376 O     s    0.186766 *  0.988965 *  0.843584 *  -2.86902    1.000000    
    377 O     s    0.313234 *  0.511035 *  0.656416 *  -2.86902    1.000000    
    378 O     s    0.217005 *  0.855229 *  0.889081 *  -2.86902    1.000000    
    379 O     s    0.282995 *  0.644771 *  0.610919 *  -2.86902    1.000000    
    380 O     s    0.069375 *  0.866252 *  0.505984 *  -2.86902    1.000000    
    381 O     s    0.430625 *  0.633748 *  0.994016 *  -2.86902    1.000000    
    382 O     s    0.084863 *  0.973329 *  0.585346 *  -2.86902    1.000000    
    383 O     s    0.415137 *  0.526671 *  0.914654 *  -2.86902    1.000000    
    384 O     s    0.000000 *  0.500000 *  0.500000 *  -2.86902    1.000000    
    385 O     s    0.750000 *  0.000000 *  0.000000 *  -2.86902    1.000000    
    386 O     s    0.865376 *  0.393765 *  0.471625 *  -2.86902    1.000000    
    387 O     s    0.634624 *  0.106235 *  0.028375 *  -2.86902    1.000000    
    388 O     s    0.711634 *  0.336099 *  0.030300 *  -2.86902    1.000000    
    389 O     s    0.788366 *  0.163901 *  0.469700 *  -2.86902    1.000000    
    390 O     s    0.850361 *  0.261233 *  0.031780 *  -2.86902    1.000000    
    391 O     s    0.649639 *  0.238767 *  0.468220 *  -2.86902    1.000000    
    392 O     s    0.785851 *  0.376762 *  0.120011 *  -2.86902    1.000000    
    393 O     s    0.714149 *  0.123238 *  0.379989 *  -2.86902    1.000000    
    394 O     s    0.936229 *  0.411433 *  0.121040 *  -2.86902    1.000000    
    395 O     s    0.563771 *  0.088567 *  0.378960 *  -2.86902    1.000000    
    396 O     s    0.801250 *  0.394974 *  0.247921 *  -2.86902    1.000000    
    397 O     s    0.698750 *  0.105026 *  0.252079 *  -2.86902    1.000000    
    398 O     s    0.831997 *  0.455189 *  0.356805 *  -2.86902    1.000000    
    399 O     s    0.668003 *  0.044811 *  0.143195 *  -2.86902    1.000000    
    400 O     s    0.686766 *  0.488965 *  0.343584 *  -2.86902    1.000000    
    401 O     s    0.813234 *  0.011035 *  0.156416 *  -2.86902    1.000000    
    402 O     s    0.717005 *  0.355229 *  0.389081 *  -2.86902    1.000000    
    403 O     s    0.782995 *  0.144771 *  0.110919 *  -2.86902    1.000000    
    404 O     s    0.569375 *  0.366252 *  0.005985 *  -2.86902    1.000000    
    405 O     s    0.930625 *  0.133748 *  0.494015 *  -2.86902    1.000000    
    406 O     s    0.584863 *  0.473329 *  0.085346 *  -2.86902    1.000000    
    407 O     s    0.915137 *  0.026671 *  0.414654 *  -2.86902    1.000000    
    408 O     s    0.500000 *  0.000000 *  1.000000 *  -2.86902    1.000000    
    409 O     s    0.750000 *  0.000000 *  0.500000 *  -2.86902    1.000000    
    410 O     s    0.865376 *  0.393765 *  0.971625 *  -2.86902    1.000000    
    411 O     s    0.634624 *  0.106235 *  0.528375 *  -2.86902    1.000000    
    412 O     s    0.711634 *  0.336099 *  0.530300 *  -2.86902    1.000000    
    413 O     s    0.788366 *  0.163901 *  0.969700 *  -2.86902    1.000000    
    414 O     s    0.850361 *  0.261233 *  0.531780 *  -2.86902    1.000000    
    415 O     s    0.649639 *  0.238767 *  0.968220 *  -2.86902    1.000000    
    416 O     s    0.785852 *  0.376762 *  0.620011 *  -2.86902    1.000000    
    417 O     s    0.714148 *  0.123238 *  0.879989 *  -2.86902    1.000000    
    418 O     s    0.936229 *  0.411433 *  0.621041 *  -2.86902    1.000000    
    419 O     s    0.563771 *  0.088567 *  0.878960 *  -2.86902    1.000000    
    420 O     s    0.801250 *  0.394974 *  0.747921 *  -2.86902    1.000000    
    421 O     s    0.698750 *  0.105026 *  0.752079 *  -2.86902    1.000000    
    422 O     s    0.831997 *  0.455189 *  0.856805 *  -2.86902    1.000000    
    423 O     s    0.668003 *  0.044811 *  0.643195 *  -2.86902    1.000000    
    424 O     s    0.686766 *  0.488965 *  0.843584 *  -2.86902    1.000000    
    425 O     s    0.813234 *  0.011035 *  0.656416 *  -2.86902    1.000000    
    426 O     s    0.717005 *  0.355229 *  0.889081 *  -2.86902    1.000000    
    427 O     s    0.782995 *  0.144771 *  0.610919 *  -2.86902    1.000000    
    428 O     s    0.569375 *  0.366252 *  0.505985 *  -2.86902    1.000000    
    429 O     s    0.930625 *  0.133748 *  0.994015 *  -2.86902    1.000000    
    430 O     s    0.584863 *  0.473329 *  0.585346 *  -2.86902    1.000000    
    431 O     s    0.915137 *  0.026671 *  0.914654 *  -2.86902    1.000000    
    432 O     s    0.499999 *  0.000000 *  0.500001 *  -2.86902    1.000000    
    433 O     s    0.750000 *  0.500000 *  0.000000 *  -2.86902    1.000000    
    434 O     s    0.865376 *  0.893765 *  0.471625 *  -2.86902    1.000000    
    435 O     s    0.634624 *  0.606235 *  0.028375 *  -2.86902    1.000000    
    436 O     s    0.711634 *  0.836099 *  0.030300 *  -2.86902    1.000000    
    437 O     s    0.788366 *  0.663901 *  0.469700 *  -2.86902    1.000000    
    438 O     s    0.850361 *  0.761233 *  0.031780 *  -2.86902    1.000000    
    439 O     s    0.649639 *  0.738767 *  0.468220 *  -2.86902    1.000000    
    440 O     s    0.785852 *  0.876762 *  0.120011 *  -2.86902    1.000000    
    441 O     s    0.714148 *  0.623238 *  0.379989 *  -2.86902    1.000000    
    442 O     s    0.936229 *  0.911433 *  0.121040 *  -2.86902    1.000000    
    443 O     s    0.563771 *  0.588567 *  0.378960 *  -2.86902    1.000000    
    444 O     s    0.801250 *  0.894974 *  0.247921 *  -2.86902    1.000000    
    445 O     s    0.698750 *  0.605026 *  0.252079 *  -2.86902    1.000000    
    446 O     s    0.831997 *  0.955189 *  0.356805 *  -2.86902    1.000000    
    447 O     s    0.668003 *  0.544811 *  0.143195 *  -2.86902    1.000000    
    448 O     s    0.686766 *  0.988965 *  0.343584 *  -2.86902    1.000000    
    449 O     s    0.813234 *  0.511035 *  0.156416 *  -2.86902    1.000000    
    450 O     s    0.717005 *  0.855229 *  0.389081 *  -2.86902    1.000000    
    451 O     s    0.782995 *  0.644771 *  0.110919 *  -2.86902    1.000000    
    452 O     s    0.569375 *  0.866252 *  0.005985 *  -2.86902    1.000000    
    453 O     s    0.930625 *  0.633748 *  0.494016 *  -2.86902    1.000000    
    454 O     s    0.584863 *  0.973329 *  0.085346 *  -2.86902    1.000000    
    455 O     s    0.915137 *  0.526671 *  0.414654 *  -2.86902    1.000000    
    456 O     s    0.499999 *  0.500000 *  0.000000 *  -2.86902    1.000000    
    457 O     s    0.750000 *  0.500000 *  0.500000 *  -2.86902    1.000000    
    458 O     s    0.865376 *  0.893765 *  0.971625 *  -2.86902    1.000000    
    459 O     s    0.634624 *  0.606235 *  0.528375 *  -2.86902    1.000000    
    460 O     s    0.711634 *  0.836099 *  0.530300 *  -2.86902    1.000000    
    461 O     s    0.788366 *  0.663901 *  0.969700 *  -2.86902    1.000000    
    462 O     s    0.850360 *  0.761233 *  0.531780 *  -2.86902    1.000000    
    463 O     s    0.649640 *  0.738767 *  0.968220 *  -2.86902    1.000000    
    464 O     s    0.785852 *  0.876762 *  0.620011 *  -2.86902    1.000000    
    465 O     s    0.714149 *  0.623238 *  0.879989 *  -2.86902    1.000000    
    466 O     s    0.936229 *  0.911433 *  0.621040 *  -2.86902    1.000000    
    467 O     s    0.563771 *  0.588567 *  0.878960 *  -2.86902    1.000000    
    468 O     s    0.801250 *  0.894974 *  0.747921 *  -2.86902    1.000000    
    469 O     s    0.698750 *  0.605026 *  0.752079 *  -2.86902    1.000000    
    470 O     s    0.831997 *  0.955189 *  0.856805 *  -2.86902    1.000000    
    471 O     s    0.668003 *  0.544811 *  0.643195 *  -2.86902    1.000000    
    472 O     s    0.686766 *  0.988965 *  0.843584 *  -2.86902    1.000000    
    473 O     s    0.813234 *  0.511035 *  0.656416 *  -2.86902    1.000000    
    474 O     s    0.717005 *  0.855229 *  0.889081 *  -2.86902    1.000000    
    475 O     s    0.782995 *  0.644771 *  0.610919 *  -2.86902    1.000000    
    476 O     s    0.569375 *  0.866252 *  0.505984 *  -2.86902    1.000000    
    477 O     s    0.930625 *  0.633748 *  0.994016 *  -2.86902    1.000000    
    478 O     s    0.584863 *  0.973329 *  0.585346 *  -2.86902    1.000000    
    479 O     s    0.915137 *  0.526671 *  0.914654 *  -2.86902    1.000000    
    480 O     s    0.500000 *  0.500000 *  0.500000 *  -2.86902    1.000000    
--------------------------------------------------------------------------------



********************************************************************************
*  General input information                                                   *
********************************************************************************

  Species output for all configurations : 

--------------------------------------------------------------------------------
  Species    Type    Atomic    Atomic    Charge       Radii (Angs)     Library
                     Number     Mass       (e)     Cova   Ionic  VDW   Symbol
--------------------------------------------------------------------------------
    O        Core        8      16.00   0.869020   0.730  0.000  1.360 O        
    O        Shell       8       0.00  -2.869020   0.730  0.000  0.000 O        
    Si       Core       14      28.09   4.000000   1.200  0.000  2.100 Si       
--------------------------------------------------------------------------------


  Lattice summation method               =    Ewald          (3-D)
                                         =    Parry          (2-D)
                                         =    Saunders et al (1-D)
  Accuracy factor for lattice sums       =   12.000


  Analytic derivatives to be used

  Time limit = Infinity

  Maximum range for interatomic potentials =    100000.000000 Angstroms

  General interatomic potentials :

--------------------------------------------------------------------------------
Atom  Types   Potential      Parameter       Value         Units   Cutoffs(Ang)
  1     2                                                            Min /  Max 
--------------------------------------------------------------------------------
Si   c O    s Buckingham    Buckingham A     1283.9070    eV        0.000 10.000
                            Buckingham rho  0.32052000    Ang       
                            Buckingham C     10.661580    eV*Ang^6  
--------------------------------------------------------------------------------
O    s O    s Buckingham    Buckingham A     22764.000    eV        0.000 12.000
                            Buckingham rho  0.14900000    Ang       
                            Buckingham C     27.879000    eV*Ang^6  
--------------------------------------------------------------------------------
O    c O    s Spring (c-s)  Spring k 2       74.920000    eV*Ang^-2 0.000  1.100
                            Spring k 4       0.0000000    eV*Ang^-4 
--------------------------------------------------------------------------------

  General Three-body potentials :

--------------------------------------------------------------------------------
  Atoms       Potential      Parameter       Value         Units   Cutoffs(Ang)
  1 / 2 / 3                                                          Min /  Max 
--------------------------------------------------------------------------------
Si    core    Harmonic      Three-body cnst  2.0972400    eV*rad^-2 0.000  1.900
O     shel                  Three-body angl  109.47000    degrees   0.000  1.900
O     shel                  Three-body k4    0.0000000    eV*rad^-4 0.000  3.500
                            Three-body k3    0.0000000    eV*rad^-3 
--------------------------------------------------------------------------------
Si    core    Harmonic      Three-body cnst  2.0972400    eV*rad^-2 0.000  1.900
O     shel                  Three-body angl  109.47000    degrees   0.000  1.900
õ(    shel                  Three-body k4    0.0000000    eV*rad^-4 0.000  3.500
                            Three-body k3    0.0000000    eV*rad^-3 
--------------------------------------------------------------------------------
Si    core    Harmonic      Three-body cnst  2.0972400    eV*rad^-2 0.000  1.900
õ(    shel                  Three-body angl  109.47000    degrees   0.000  1.900
õ(    shel                  Three-body k4    0.0000000    eV*rad^-4 0.000  3.500
                            Three-body k3    0.0000000    eV*rad^-3 
--------------------------------------------------------------------------------

********************************************************************************
*  Output for configuration   1 : ReferenceDataBase/ITQ-69                     *
********************************************************************************


  Components of energy : 

--------------------------------------------------------------------------------
  Interatomic potentials     =        2980.89827211 eV    
  Three-body potentials      =           0.83071127 eV    
  Monopole - monopole (real) =      -11982.40790442 eV    
  Monopole - monopole (recip)=       -3167.68409012 eV    
  Monopole - monopole (total)=      -15150.09199454 eV    
--------------------------------------------------------------------------------
  Total lattice energy       =      -12168.36301115 eV    
--------------------------------------------------------------------------------
  Total lattice energy       =        -1174061.0201 kJ/(mole unit cells)
--------------------------------------------------------------------------------


  Number of variables =     1443

  Maximum number of calculations  =           500
  Maximum Hessian update interval =            10
  Maximum step size               =   0.100000000
  Maximum parameter tolerance     =   0.000010000
  Maximum function  tolerance     =   0.000010000
  Maximum gradient  tolerance     =   0.001000000
  Maximum gradient  component     =   0.010000000

  Cell parameters to be optimised using strains

  Newton-Raphson optimiser to be used

  BFGS hessian update to be used

  General 2-D hessian to be used

  Minimiser to switch to RFO
  When gradient norm is less than     0.080000

  Switch max step size to       0.30000000 when gnorm is less than     0.005000

  Dumpfile to be written after every cycle

  Start of bulk optimisation :

  Cycle:      0 Energy:    -12168.363011  Gnorm:      3.232322  CPU:    0.408
  ** Hessian calculated **
  Cycle:      1 Energy:    -12307.471434  Gnorm:      1.076720  CPU:    0.977
  ** Hessian calculated **
  Cycle:      2 Energy:    -12335.753184  Gnorm:      0.186973  CPU:    1.832
  ** Hessian calculated **
  Cycle:      3 Energy:    -12336.458045  Gnorm:      0.093650  CPU:    2.545
  Cycle:      4 Energy:    -12336.633716  Gnorm:      0.046952  CPU:    2.832
  ** Hessian has required structure
  Cycle:      5 Energy:    -12336.633762  Gnorm:      0.046799  CPU:    3.234
  ** Hessian has required structure
  Cycle:      6 Energy:    -12336.633788  Gnorm:      0.046960  CPU:    3.588
  ** Hessian has required structure
  Cycle:      7 Energy:    -12336.633801  Gnorm:      0.046870  CPU:    3.953
  ** Hessian has required structure
  ** Hessian has required structure
  Cycle:      8 Energy:    -12336.678070  Gnorm:      0.023450  CPU:    4.918
  ** Hessian has required structure
  Cycle:      9 Energy:    -12336.689130  Gnorm:      0.011736  CPU:    5.368
  ** Hessian has required structure
  Cycle:     10 Energy:    -12336.691904  Gnorm:      0.005870  CPU:    5.826
  ** Hessian has required structure
  Cycle:     11 Energy:    -12336.692599  Gnorm:      0.002936  CPU:    6.279
  ** Hessian has required structure
  Cycle:     12 Energy:    -12336.692822  Gnorm:      0.000591  CPU:    6.798
  ** Hessian has required structure
  Cycle:     13 Energy:    -12336.692830  Gnorm:      0.000237  CPU:    7.205
  ** Hessian has required structure
  Cycle:     14 Energy:    -12336.692831  Gnorm:      0.000166  CPU:    7.567
  ** Hessian has required structure
  Cycle:     15 Energy:    -12336.692831  Gnorm:      0.000152  CPU:    7.927
  ** Hessian has required structure
  Cycle:     16 Energy:    -12336.692831  Gnorm:      0.000150  CPU:    8.286
  ** Hessian has required structure
  Cycle:     17 Energy:    -12336.692831  Gnorm:      0.000149  CPU:    8.649
  ** Hessian has required structure
  Cycle:     18 Energy:    -12336.692831  Gnorm:      0.000150  CPU:    9.440
  ** Hessian calculated **
  Cycle:     19 Energy:    -12336.692831  Gnorm:      0.000114  CPU:   10.401
  ** Hessian has required structure
  Cycle:     20 Energy:    -12336.692682  Gnorm:      0.000112  CPU:   10.892
  ** Hessian has required structure


  **** Optimisation achieved ****


  Final energy =  -12336.69268193 eV      
  Final Gnorm  =       0.00002267

  Components of energy : 

--------------------------------------------------------------------------------
  Interatomic potentials     =        3380.86093363 eV    
  Three-body potentials      =           3.14684455 eV    
  Monopole - monopole (real) =      -11269.57480011 eV    
  Monopole - monopole (recip)=       -4451.12566001 eV    
  Monopole - monopole (total)=      -15720.70046012 eV    
--------------------------------------------------------------------------------
  Total lattice energy       =      -12336.69268193 eV    
--------------------------------------------------------------------------------
  Total lattice energy       =        -1190302.2602 kJ/(mole unit cells)
--------------------------------------------------------------------------------

  Final fractional coordinates of atoms :

--------------------------------------------------------------------------------
   No.  Atomic        x           y          z          Radius
        Label       (Frac)      (Frac)     (Frac)       (Angs) 
--------------------------------------------------------------------------------
     1  Si    c     0.340799    0.469872    0.435761    0.000000
     2  Si    c     0.159201    0.030128    0.064239    0.000000
     3  Si    c     0.302388    0.341082    0.038740    0.000000
     4  Si    c     0.197612    0.158918    0.461260    0.000000
     5  Si    c     0.333349    0.423696    0.160654    0.000000
     6  Si    c     0.166651    0.076304    0.339346    0.000000
     7  Si    c     0.258476    0.423663    0.334094    0.000000
     8  Si    c     0.241524    0.076337    0.165906    0.000000
     9  Si    c     0.162613    0.324534    0.474021    0.000000
    10  Si    c     0.337387    0.175466    0.025979    0.000000
    11  Si    c     0.021141    0.438795    0.052789    0.000000
    12  Si    c     0.478859    0.061205    0.447211    0.000000
    13  O     c     0.250000    1.000000    1.000000    0.000000
    14  O     c     0.365376    0.393765    0.471625    0.000000
    15  O     c     0.134624    0.106235    0.028375    0.000000
    16  O     c     0.211634    0.336099    0.030300    0.000000
    17  O     c     0.288366    0.163901    0.469700    0.000000
    18  O     c     0.350361    0.261233    0.031780    0.000000
    19  O     c     0.149639    0.238767    0.468220    0.000000
    20  O     c     0.285852    0.376762    0.120011    0.000000
    21  O     c     0.214148    0.123238    0.379989    0.000000
    22  O     c     0.436229    0.411433    0.121040    0.000000
    23  O     c     0.063771    0.088567    0.378959    0.000000
    24  O     c     0.301250    0.394974    0.247921    0.000000
    25  O     c     0.198750    0.105026    0.252079    0.000000
    26  O     c     0.331997    0.455189    0.356805    0.000000
    27  O     c     0.168003    0.044811    0.143195    0.000000
    28  O     c     0.186766    0.488965    0.343584    0.000000
    29  O     c     0.313234    0.011035    0.156416    0.000000
    30  O     c     0.217005    0.355229    0.389081    0.000000
    31  O     c     0.282995    0.144771    0.110919    0.000000
    32  O     c     0.069375    0.366252    0.005985    0.000000
    33  O     c     0.430625    0.133748    0.494015    0.000000
    34  O     c     0.084863    0.473329    0.085346    0.000000
    35  O     c     0.415137    0.026671    0.414654    0.000000
    36  O     c     0.000000    1.000000    1.000000    0.000000
    37  Si    c     0.340799    0.469872    0.935761    0.000000
    38  Si    c     0.159201    0.030128    0.564239    0.000000
    39  Si    c     0.302388    0.341082    0.538740    0.000000
    40  Si    c     0.197612    0.158918    0.961260    0.000000
    41  Si    c     0.333349    0.423695    0.660654    0.000000
    42  Si    c     0.166651    0.076304    0.839346    0.000000
    43  Si    c     0.258476    0.423663    0.834094    0.000000
    44  Si    c     0.241524    0.076337    0.665906    0.000000
    45  Si    c     0.162613    0.324534    0.974021    0.000000
    46  Si    c     0.337387    0.175466    0.525979    0.000000
    47  Si    c     0.021141    0.438795    0.552789    0.000000
    48  Si    c     0.478859    0.061205    0.947211    0.000000
    49  O     c     0.250000    0.000000    0.500000    0.000000
    50  O     c     0.365376    0.393765    0.971625    0.000000
    51  O     c     0.134624    0.106235    0.528375    0.000000
    52  O     c     0.211633    0.336099    0.530300    0.000000
    53  O     c     0.288366    0.163901    0.969700    0.000000
    54  O     c     0.350360    0.261233    0.531780    0.000000
    55  O     c     0.149639    0.238767    0.968220    0.000000
    56  O     c     0.285851    0.376762    0.620011    0.000000
    57  O     c     0.214149    0.123238    0.879989    0.000000
    58  O     c     0.436229    0.411433    0.621040    0.000000
    59  O     c     0.063771    0.088567    0.878960    0.000000
    60  O     c     0.301250    0.394974    0.747921    0.000000
    61  O     c     0.198750    0.105026    0.752079    0.000000
    62  O     c     0.331997    0.455189    0.856805    0.000000
    63  O     c     0.168003    0.044811    0.643195    0.000000
    64  O     c     0.186766    0.488965    0.843584    0.000000
    65  O     c     0.313234    0.011035    0.656416    0.000000
    66  O     c     0.217005    0.355229    0.889081    0.000000
    67  O     c     0.282995    0.144771    0.610919    0.000000
    68  O     c     0.069375    0.366252    0.505984    0.000000
    69  O     c     0.430625    0.133748    0.994015    0.000000
    70  O     c     0.084863    0.473329    0.585346    0.000000
    71  O     c     0.415137    0.026671    0.914654    0.000000
    72  O     c     0.000000    0.000000    0.500000    0.000000
    73  Si    c     0.340799    0.969872    0.435761    0.000000
    74  Si    c     0.159201    0.530128    0.064239    0.000000
    75  Si    c     0.302388    0.841082    0.038740    0.000000
    76  Si    c     0.197612    0.658918    0.461260    0.000000
    77  Si    c     0.333349    0.923696    0.160654    0.000000
    78  Si    c     0.166651    0.576304    0.339346    0.000000
    79  Si    c     0.258476    0.923663    0.334094    0.000000
    80  Si    c     0.241524    0.576337    0.165906    0.000000
    81  Si    c     0.162613    0.824534    0.474021    0.000000
    82  Si    c     0.337387    0.675466    0.025979    0.000000
    83  Si    c     0.021141    0.938795    0.052789    0.000000
    84  Si    c     0.478859    0.561205    0.447211    0.000000
    85  O     c     0.250000    0.500000    1.000000    0.000000
    86  O     c     0.365376    0.893765    0.471625    0.000000
    87  O     c     0.134624    0.606235    0.028375    0.000000
    88  O     c     0.211634    0.836099    0.030300    0.000000
    89  O     c     0.288366    0.663901    0.469700    0.000000
    90  O     c     0.350361    0.761233    0.031780    0.000000
    91  O     c     0.149639    0.738767    0.468220    0.000000
    92  O     c     0.285852    0.876762    0.120011    0.000000
    93  O     c     0.214148    0.623238    0.379989    0.000000
    94  O     c     0.436229    0.911433    0.121040    0.000000
    95  O     c     0.063771    0.588567    0.378960    0.000000
    96  O     c     0.301250    0.894974    0.247921    0.000000
    97  O     c     0.198750    0.605026    0.252079    0.000000
    98  O     c     0.331997    0.955189    0.356805    0.000000
    99  O     c     0.168003    0.544811    0.143195    0.000000
   100  O     c     0.186766    0.988965    0.343584    0.000000
   101  O     c     0.313234    0.511035    0.156416    0.000000
   102  O     c     0.217005    0.855229    0.389081    0.000000
   103  O     c     0.282995    0.644771    0.110919    0.000000
   104  O     c     0.069375    0.866252    0.005985    0.000000
   105  O     c     0.430625    0.633748    0.494015    0.000000
   106  O     c     0.084863    0.973329    0.085346    0.000000
   107  O     c     0.415137    0.526671    0.414654    0.000000
   108  O     c     0.999999    0.500000    0.000000    0.000000
   109  Si    c     0.340799    0.969872    0.935761    0.000000
   110  Si    c     0.159201    0.530128    0.564239    0.000000
   111  Si    c     0.302388    0.841082    0.538740    0.000000
   112  Si    c     0.197612    0.658918    0.961260    0.000000
   113  Si    c     0.333349    0.923695    0.660654    0.000000
   114  Si    c     0.166651    0.576304    0.839346    0.000000
   115  Si    c     0.258476    0.923663    0.834094    0.000000
   116  Si    c     0.241524    0.576337    0.665906    0.000000
   117  Si    c     0.162613    0.824534    0.974021    0.000000
   118  Si    c     0.337387    0.675466    0.525979    0.000000
   119  Si    c     0.021141    0.938795    0.552789    0.000000
   120  Si    c     0.478859    0.561205    0.947211    0.000000
   121  O     c     0.250000    0.500000    0.500000    0.000000
   122  O     c     0.365376    0.893765    0.971625    0.000000
   123  O     c     0.134624    0.606235    0.528375    0.000000
   124  O     c     0.211634    0.836099    0.530300    0.000000
   125  O     c     0.288366    0.663901    0.969700    0.000000
   126  O     c     0.350361    0.761233    0.531780    0.000000
   127  O     c     0.149640    0.738767    0.968220    0.000000
   128  O     c     0.285851    0.876762    0.620011    0.000000
   129  O     c     0.214149    0.623238    0.879989    0.000000
   130  O     c     0.436229    0.911433    0.621040    0.000000
   131  O     c     0.063771    0.588567    0.878960    0.000000
   132  O     c     0.301250    0.894974    0.747921    0.000000
   133  O     c     0.198750    0.605026    0.752079    0.000000
   134  O     c     0.331998    0.955189    0.856805    0.000000
   135  O     c     0.168002    0.544811    0.643195    0.000000
   136  O     c     0.186766    0.988965    0.843584    0.000000
   137  O     c     0.313234    0.511035    0.656416    0.000000
   138  O     c     0.217005    0.855229    0.889081    0.000000
   139  O     c     0.282995    0.644771    0.610919    0.000000
   140  O     c     0.069375    0.866252    0.505984    0.000000
   141  O     c     0.430625    0.633748    0.994016    0.000000
   142  O     c     0.084863    0.973329    0.585346    0.000000
   143  O     c     0.415137    0.526671    0.914654    0.000000
   144  O     c     0.999999    0.500000    0.500000    0.000000
   145  Si    c     0.840799    0.469872    0.435761    0.000000
   146  Si    c     0.659201    0.030128    0.064239    0.000000
   147  Si    c     0.802388    0.341082    0.038740    0.000000
   148  Si    c     0.697612    0.158918    0.461260    0.000000
   149  Si    c     0.833349    0.423695    0.160654    0.000000
   150  Si    c     0.666651    0.076304    0.339346    0.000000
   151  Si    c     0.758476    0.423663    0.334094    0.000000
   152  Si    c     0.741524    0.076337    0.165906    0.000000
   153  Si    c     0.662613    0.324534    0.474021    0.000000
   154  Si    c     0.837387    0.175466    0.025979    0.000000
   155  Si    c     0.521141    0.438795    0.052789    0.000000
   156  Si    c     0.978859    0.061205    0.447211    0.000000
   157  O     c     0.750000    0.000000    0.000000    0.000000
   158  O     c     0.865376    0.393765    0.471625    0.000000
   159  O     c     0.634624    0.106235    0.028375    0.000000
   160  O     c     0.711634    0.336099    0.030300    0.000000
   161  O     c     0.788366    0.163901    0.469700    0.000000
   162  O     c     0.850361    0.261233    0.031780    0.000000
   163  O     c     0.649639    0.238767    0.468220    0.000000
   164  O     c     0.785852    0.376762    0.120011    0.000000
   165  O     c     0.714148    0.123238    0.379989    0.000000
   166  O     c     0.936229    0.411433    0.121041    0.000000
   167  O     c     0.563771    0.088567    0.378960    0.000000
   168  O     c     0.801250    0.394974    0.247921    0.000000
   169  O     c     0.698750    0.105026    0.252079    0.000000
   170  O     c     0.831997    0.455189    0.356805    0.000000
   171  O     c     0.668003    0.044811    0.143195    0.000000
   172  O     c     0.686766    0.488965    0.343584    0.000000
   173  O     c     0.813234    0.011035    0.156416    0.000000
   174  O     c     0.717005    0.355229    0.389081    0.000000
   175  O     c     0.782995    0.144771    0.110919    0.000000
   176  O     c     0.569375    0.366252    0.005985    0.000000
   177  O     c     0.930625    0.133748    0.494015    0.000000
   178  O     c     0.584863    0.473329    0.085346    0.000000
   179  O     c     0.915137    0.026671    0.414654    0.000000
   180  O     c     0.500000    1.000000    1.000000    0.000000
   181  Si    c     0.840799    0.469872    0.935761    0.000000
   182  Si    c     0.659201    0.030128    0.564239    0.000000
   183  Si    c     0.802388    0.341082    0.538740    0.000000
   184  Si    c     0.697612    0.158918    0.961260    0.000000
   185  Si    c     0.833349    0.423695    0.660654    0.000000
   186  Si    c     0.666651    0.076304    0.839346    0.000000
   187  Si    c     0.758476    0.423663    0.834094    0.000000
   188  Si    c     0.741524    0.076337    0.665906    0.000000
   189  Si    c     0.662613    0.324534    0.974021    0.000000
   190  Si    c     0.837387    0.175466    0.525979    0.000000
   191  Si    c     0.521141    0.438795    0.552789    0.000000
   192  Si    c     0.978859    0.061205    0.947211    0.000000
   193  O     c     0.750000    0.000000    0.500000    0.000000
   194  O     c     0.865376    0.393765    0.971625    0.000000
   195  O     c     0.634624    0.106235    0.528375    0.000000
   196  O     c     0.711634    0.336099    0.530300    0.000000
   197  O     c     0.788366    0.163901    0.969700    0.000000
   198  O     c     0.850361    0.261233    0.531780    0.000000
   199  O     c     0.649639    0.238767    0.968220    0.000000
   200  O     c     0.785852    0.376762    0.620011    0.000000
   201  O     c     0.714149    0.123238    0.879989    0.000000
   202  O     c     0.936229    0.411433    0.621040    0.000000
   203  O     c     0.563771    0.088567    0.878960    0.000000
   204  O     c     0.801250    0.394974    0.747921    0.000000
   205  O     c     0.698750    0.105026    0.752079    0.000000
   206  O     c     0.831997    0.455189    0.856805    0.000000
   207  O     c     0.668003    0.044811    0.643195    0.000000
   208  O     c     0.686766    0.488965    0.843584    0.000000
   209  O     c     0.813234    0.011035    0.656416    0.000000
   210  O     c     0.717005    0.355229    0.889081    0.000000
   211  O     c     0.782995    0.144771    0.610919    0.000000
   212  O     c     0.569375    0.366252    0.505985    0.000000
   213  O     c     0.930625    0.133748    0.994015    0.000000
   214  O     c     0.584863    0.473329    0.585346    0.000000
   215  O     c     0.915137    0.026671    0.914654    0.000000
   216  O     c     0.500000    0.000000    0.500000    0.000000
   217  Si    c     0.840799    0.969872    0.435761    0.000000
   218  Si    c     0.659201    0.530128    0.064239    0.000000
   219  Si    c     0.802388    0.841082    0.038740    0.000000
   220  Si    c     0.697612    0.658918    0.461260    0.000000
   221  Si    c     0.833349    0.923695    0.160654    0.000000
   222  Si    c     0.666651    0.576304    0.339346    0.000000
   223  Si    c     0.758476    0.923663    0.334094    0.000000
   224  Si    c     0.741524    0.576337    0.165906    0.000000
   225  Si    c     0.662613    0.824534    0.474021    0.000000
   226  Si    c     0.837387    0.675466    0.025979    0.000000
   227  Si    c     0.521141    0.938795    0.052789    0.000000
   228  Si    c     0.978859    0.561205    0.447211    0.000000
   229  O     c     0.750000    0.500000    0.000000    0.000000
   230  O     c     0.865376    0.893765    0.471625    0.000000
   231  O     c     0.634624    0.606235    0.028375    0.000000
   232  O     c     0.711634    0.836099    0.030300    0.000000
   233  O     c     0.788366    0.663901    0.469700    0.000000
   234  O     c     0.850361    0.761233    0.031780    0.000000
   235  O     c     0.649639    0.738767    0.468220    0.000000
   236  O     c     0.785852    0.876762    0.120011    0.000000
   237  O     c     0.714148    0.623238    0.379989    0.000000
   238  O     c     0.936229    0.911433    0.121040    0.000000
   239  O     c     0.563771    0.588567    0.378960    0.000000
   240  O     c     0.801250    0.894974    0.247921    0.000000
   241  O     c     0.698750    0.605026    0.252079    0.000000
   242  O     c     0.831997    0.955189    0.356805    0.000000
   243  O     c     0.668003    0.544811    0.143195    0.000000
   244  O     c     0.686766    0.988965    0.343584    0.000000
   245  O     c     0.813234    0.511035    0.156416    0.000000
   246  O     c     0.717005    0.855229    0.389081    0.000000
   247  O     c     0.782995    0.644771    0.110919    0.000000
   248  O     c     0.569375    0.866252    0.005984    0.000000
   249  O     c     0.930625    0.633748    0.494015    0.000000
   250  O     c     0.584863    0.973329    0.085346    0.000000
   251  O     c     0.915137    0.526671    0.414654    0.000000
   252  O     c     0.500000    0.500000    1.000000    0.000000
   253  Si    c     0.840799    0.969872    0.935761    0.000000
   254  Si    c     0.659201    0.530128    0.564239    0.000000
   255  Si    c     0.802388    0.841082    0.538740    0.000000
   256  Si    c     0.697612    0.658918    0.961260    0.000000
   257  Si    c     0.833349    0.923696    0.660654    0.000000
   258  Si    c     0.666651    0.576304    0.839346    0.000000
   259  Si    c     0.758476    0.923663    0.834094    0.000000
   260  Si    c     0.741524    0.576337    0.665906    0.000000
   261  Si    c     0.662613    0.824534    0.974021    0.000000
   262  Si    c     0.837387    0.675466    0.525979    0.000000
   263  Si    c     0.521141    0.938795    0.552789    0.000000
   264  Si    c     0.978859    0.561205    0.947211    0.000000
   265  O     c     0.750000    0.500000    0.500000    0.000000
   266  O     c     0.865376    0.893765    0.971625    0.000000
   267  O     c     0.634624    0.606235    0.528375    0.000000
   268  O     c     0.711634    0.836099    0.530300    0.000000
   269  O     c     0.788366    0.663901    0.969700    0.000000
   270  O     c     0.850360    0.761233    0.531780    0.000000
   271  O     c     0.649639    0.738767    0.968220    0.000000
   272  O     c     0.785851    0.876762    0.620011    0.000000
   273  O     c     0.714149    0.623238    0.879989    0.000000
   274  O     c     0.936229    0.911433    0.621040    0.000000
   275  O     c     0.563771    0.588567    0.878960    0.000000
   276  O     c     0.801250    0.894974    0.747921    0.000000
   277  O     c     0.698750    0.605026    0.752079    0.000000
   278  O     c     0.831997    0.955189    0.856805    0.000000
   279  O     c     0.668003    0.544811    0.643195    0.000000
   280  O     c     0.686766    0.988965    0.843584    0.000000
   281  O     c     0.813234    0.511035    0.656416    0.000000
   282  O     c     0.717005    0.855229    0.889081    0.000000
   283  O     c     0.782995    0.644771    0.610919    0.000000
   284  O     c     0.569375    0.866252    0.505984    0.000000
   285  O     c     0.930625    0.633748    0.994015    0.000000
   286  O     c     0.584863    0.973329    0.585346    0.000000
   287  O     c     0.915137    0.526671    0.914654    0.000000
   288  O     c     0.500000    0.500000    0.500000    0.000000
   289  O     s     0.250000    1.000000    1.000000    0.000000
   290  O     s     0.356335    0.396232    0.474924    0.000000
   291  O     s     0.143665    0.103768    0.025076    0.000000
   292  O     s     0.216216    0.335367    0.025260    0.000000
   293  O     s     0.283784    0.164633    0.474740    0.000000
   294  O     s     0.343476    0.260530    0.031915    0.000000
   295  O     s     0.156524    0.239470    0.468085    0.000000
   296  O     s     0.292750    0.378010    0.115623    0.000000
   297  O     s     0.207250    0.121989    0.384377    0.000000
   298  O     s     0.434399    0.415892    0.117669    0.000000
   299  O     s     0.065601    0.084108    0.382331    0.000000
   300  O     s     0.299977    0.401420    0.247905    0.000000
   301  O     s     0.200023    0.098579    0.252095    0.000000
   302  O     s     0.325032    0.453437    0.363156    0.000000
   303  O     s     0.174968    0.046563    0.136844    0.000000
   304  O     s     0.192434    0.491288    0.342052    0.000000
   305  O     s     0.307566    0.008712    0.157948    0.000000
   306  O     s     0.215768    0.359607    0.392233    0.000000
   307  O     s     0.284232    0.140393    0.107767    0.000000
   308  O     s     0.074552    0.369580    0.007539    0.000000
   309  O     s     0.425448    0.130420    0.492461    0.000000
   310  O     s     0.086463    0.476088    0.079282    0.000000
   311  O     s     0.413537    0.023912    0.420718    0.000000
   312  O     s     0.000000    1.000000    1.000000    0.000000
   313  O     s     0.250000    0.000000    0.500000    0.000000
   314  O     s     0.356335    0.396232    0.974924    0.000000
   315  O     s     0.143665    0.103768    0.525076    0.000000
   316  O     s     0.216216    0.335367    0.525260    0.000000
   317  O     s     0.283784    0.164633    0.974740    0.000000
   318  O     s     0.343476    0.260530    0.531915    0.000000
   319  O     s     0.156524    0.239470    0.968085    0.000000
   320  O     s     0.292750    0.378010    0.615623    0.000000
   321  O     s     0.207250    0.121990    0.884377    0.000000
   322  O     s     0.434399    0.415892    0.617669    0.000000
   323  O     s     0.065601    0.084108    0.882331    0.000000
   324  O     s     0.299977    0.401420    0.747905    0.000000
   325  O     s     0.200023    0.098580    0.752095    0.000000
   326  O     s     0.325032    0.453437    0.863156    0.000000
   327  O     s     0.174968    0.046563    0.636844    0.000000
   328  O     s     0.192434    0.491288    0.842052    0.000000
   329  O     s     0.307566    0.008712    0.657948    0.000000
   330  O     s     0.215768    0.359607    0.892233    0.000000
   331  O     s     0.284232    0.140393    0.607767    0.000000
   332  O     s     0.074552    0.369580    0.507539    0.000000
   333  O     s     0.425448    0.130420    0.992461    0.000000
   334  O     s     0.086463    0.476087    0.579282    0.000000
   335  O     s     0.413537    0.023912    0.920718    0.000000
   336  O     s     0.000000    0.000000    0.500000    0.000000
   337  O     s     0.250000    0.500000    1.000000    0.000000
   338  O     s     0.356335    0.896232    0.474924    0.000000
   339  O     s     0.143665    0.603768    0.025076    0.000000
   340  O     s     0.216216    0.835367    0.025260    0.000000
   341  O     s     0.283784    0.664633    0.474740    0.000000
   342  O     s     0.343476    0.760530    0.031915    0.000000
   343  O     s     0.156524    0.739470    0.468085    0.000000
   344  O     s     0.292750    0.878010    0.115623    0.000000
   345  O     s     0.207250    0.621989    0.384377    0.000000
   346  O     s     0.434399    0.915892    0.117669    0.000000
   347  O     s     0.065601    0.584107    0.382331    0.000000
   348  O     s     0.299977    0.901420    0.247905    0.000000
   349  O     s     0.200023    0.598579    0.252095    0.000000
   350  O     s     0.325032    0.953437    0.363156    0.000000
   351  O     s     0.174968    0.546563    0.136844    0.000000
   352  O     s     0.192434    0.991288    0.342052    0.000000
   353  O     s     0.307566    0.508712    0.157948    0.000000
   354  O     s     0.215768    0.859607    0.392233    0.000000
   355  O     s     0.284232    0.640393    0.107767    0.000000
   356  O     s     0.074553    0.869580    0.007539    0.000000
   357  O     s     0.425447    0.630420    0.492461    0.000000
   358  O     s     0.086463    0.976088    0.079282    0.000000
   359  O     s     0.413537    0.523912    0.420718    0.000000
   360  O     s     1.000000    0.500000    0.000000    0.000000
   361  O     s     0.250000    0.500000    0.500000    0.000000
   362  O     s     0.356335    0.896232    0.974924    0.000000
   363  O     s     0.143665    0.603768    0.525076    0.000000
   364  O     s     0.216216    0.835367    0.525260    0.000000
   365  O     s     0.283784    0.664633    0.974740    0.000000
   366  O     s     0.343476    0.760530    0.531915    0.000000
   367  O     s     0.156524    0.739470    0.968085    0.000000
   368  O     s     0.292750    0.878010    0.615623    0.000000
   369  O     s     0.207250    0.621990    0.884377    0.000000
   370  O     s     0.434399    0.915892    0.617669    0.000000
   371  O     s     0.065601    0.584108    0.882331    0.000000
   372  O     s     0.299977    0.901420    0.747905    0.000000
   373  O     s     0.200023    0.598579    0.752095    0.000000
   374  O     s     0.325033    0.953437    0.863156    0.000000
   375  O     s     0.174968    0.546563    0.636844    0.000000
   376  O     s     0.192434    0.991288    0.842052    0.000000
   377  O     s     0.307566    0.508712    0.657948    0.000000
   378  O     s     0.215768    0.859607    0.892233    0.000000
   379  O     s     0.284232    0.640393    0.607767    0.000000
   380  O     s     0.074552    0.869580    0.507539    0.000000
   381  O     s     0.425448    0.630420    0.992461    0.000000
   382  O     s     0.086463    0.976087    0.579282    0.000000
   383  O     s     0.413537    0.523912    0.920718    0.000000
   384  O     s     1.000000    0.500000    0.500000    0.000000
   385  O     s     0.750000    0.000000    0.000000    0.000000
   386  O     s     0.856335    0.396232    0.474924    0.000000
   387  O     s     0.643665    0.103768    0.025076    0.000000
   388  O     s     0.716216    0.335367    0.025260    0.000000
   389  O     s     0.783784    0.164633    0.474740    0.000000
   390  O     s     0.843476    0.260530    0.031915    0.000000
   391  O     s     0.656524    0.239470    0.468085    0.000000
   392  O     s     0.792750    0.378010    0.115623    0.000000
   393  O     s     0.707250    0.121989    0.384377    0.000000
   394  O     s     0.934399    0.415892    0.117669    0.000000
   395  O     s     0.565601    0.084108    0.382331    0.000000
   396  O     s     0.799977    0.401420    0.247905    0.000000
   397  O     s     0.700023    0.098580    0.252095    0.000000
   398  O     s     0.825032    0.453437    0.363156    0.000000
   399  O     s     0.674968    0.046563    0.136844    0.000000
   400  O     s     0.692434    0.491288    0.342052    0.000000
   401  O     s     0.807566    0.008712    0.157948    0.000000
   402  O     s     0.715768    0.359607    0.392233    0.000000
   403  O     s     0.784232    0.140393    0.107767    0.000000
   404  O     s     0.574552    0.369580    0.007539    0.000000
   405  O     s     0.925448    0.130420    0.492461    0.000000
   406  O     s     0.586463    0.476088    0.079282    0.000000
   407  O     s     0.913537    0.023912    0.420718    0.000000
   408  O     s     0.500000    1.000000    1.000000    0.000000
   409  O     s     0.750000    0.000000    0.500000    0.000000
   410  O     s     0.856335    0.396232    0.974924    0.000000
   411  O     s     0.643665    0.103768    0.525076    0.000000
   412  O     s     0.716216    0.335367    0.525260    0.000000
   413  O     s     0.783784    0.164633    0.974740    0.000000
   414  O     s     0.843476    0.260530    0.531915    0.000000
   415  O     s     0.656524    0.239470    0.968085    0.000000
   416  O     s     0.792750    0.378010    0.615623    0.000000
   417  O     s     0.707250    0.121989    0.884377    0.000000
   418  O     s     0.934399    0.415892    0.617669    0.000000
   419  O     s     0.565601    0.084108    0.882331    0.000000
   420  O     s     0.799977    0.401420    0.747905    0.000000
   421  O     s     0.700023    0.098580    0.752095    0.000000
   422  O     s     0.825032    0.453437    0.863156    0.000000
   423  O     s     0.674968    0.046563    0.636844    0.000000
   424  O     s     0.692434    0.491288    0.842052    0.000000
   425  O     s     0.807566    0.008712    0.657948    0.000000
   426  O     s     0.715768    0.359607    0.892233    0.000000
   427  O     s     0.784232    0.140393    0.607767    0.000000
   428  O     s     0.574552    0.369580    0.507539    0.000000
   429  O     s     0.925448    0.130420    0.992461    0.000000
   430  O     s     0.586463    0.476088    0.579282    0.000000
   431  O     s     0.913537    0.023912    0.920718    0.000000
   432  O     s     0.500000    0.000000    0.500000    0.000000
   433  O     s     0.750000    0.500000    0.000000    0.000000
   434  O     s     0.856335    0.896232    0.474924    0.000000
   435  O     s     0.643665    0.603768    0.025076    0.000000
   436  O     s     0.716216    0.835367    0.025260    0.000000
   437  O     s     0.783784    0.664633    0.474740    0.000000
   438  O     s     0.843476    0.760530    0.031915    0.000000
   439  O     s     0.656524    0.739470    0.468085    0.000000
   440  O     s     0.792750    0.878010    0.115623    0.000000
   441  O     s     0.707250    0.621989    0.384377    0.000000
   442  O     s     0.934399    0.915892    0.117669    0.000000
   443  O     s     0.565601    0.584108    0.382331    0.000000
   444  O     s     0.799977    0.901420    0.247905    0.000000
   445  O     s     0.700023    0.598579    0.252095    0.000000
   446  O     s     0.825032    0.953437    0.363156    0.000000
   447  O     s     0.674968    0.546563    0.136844    0.000000
   448  O     s     0.692434    0.991288    0.342052    0.000000
   449  O     s     0.807566    0.508712    0.157948    0.000000
   450  O     s     0.715768    0.859607    0.392233    0.000000
   451  O     s     0.784232    0.640393    0.107767    0.000000
   452  O     s     0.574552    0.869580    0.007539    0.000000
   453  O     s     0.925448    0.630420    0.492461    0.000000
   454  O     s     0.586463    0.976087    0.079282    0.000000
   455  O     s     0.913537    0.523912    0.420718    0.000000
[...]
    229 O     c       0.000642     -0.000001      0.000886      0.000000
    230 O     c      -0.000272     -0.000042      0.001451      0.000000
    231 O     c       0.000272      0.000042     -0.001451      0.000000
    232 O     c       0.000873     -0.000369     -0.000263      0.000000
    233 O     c      -0.000873      0.000369      0.000263      0.000000
    234 O     c       0.000106     -0.000201      0.001425      0.000000
    235 O     c      -0.000106      0.000201     -0.001425      0.000000
    236 O     c       0.001154     -0.000949     -0.000961      0.000000
    237 O     c      -0.001154      0.000949      0.000961      0.000000
    238 O     c       0.000005      0.000512     -0.000027      0.000000
    239 O     c      -0.000005     -0.000512      0.000027      0.000000
    240 O     c      -0.000087      0.000797      0.000062      0.000000
    241 O     c       0.000087     -0.000797     -0.000062      0.000000
    242 O     c      -0.000224     -0.000184      0.001670      0.000000
    243 O     c       0.000224      0.000184     -0.001670      0.000000
    244 O     c       0.000042     -0.000007     -0.001252      0.000000
    245 O     c      -0.000042      0.000007      0.001252      0.000000
    246 O     c      -0.001258      0.000078     -0.000809      0.000000
    247 O     c       0.001258     -0.000078      0.000809      0.000000
    248 O     c       0.000190     -0.000650     -0.000596      0.000000
    249 O     c      -0.000190      0.000650      0.000596      0.000000
    250 O     c       0.000724      0.001092     -0.000343      0.000000
    251 O     c      -0.000724     -0.001092      0.000343      0.000000
    252 O     c      -0.000055      0.000284      0.000267      0.000000
    253 Si    c      -0.000220      0.000345      0.000349      0.000000
    254 Si    c       0.000220     -0.000344     -0.000350      0.000000
    255 Si    c       0.001168     -0.000260      0.001402      0.000000
    256 Si    c      -0.001168      0.000260     -0.001402      0.000000
    257 Si    c       0.000520     -0.000487      0.000519      0.000000
    258 Si    c      -0.000520      0.000487     -0.000519      0.000000
    259 Si    c      -0.000656     -0.000549     -0.001146      0.000000
    260 Si    c       0.000656      0.000549      0.001146      0.000000
    261 Si    c      -0.000820     -0.000697     -0.001359      0.000000
    262 Si    c       0.000820      0.000697      0.001359      0.000000
    263 Si    c      -0.000540     -0.000461     -0.000028      0.000000
    264 Si    c       0.000540      0.000461      0.000027      0.000000
    265 O     c       0.000299      0.000069      0.000416      0.000000
    266 O     c      -0.000272     -0.000042      0.001452      0.000000
    267 O     c       0.000272      0.000042     -0.001451      0.000000
    268 O     c       0.000873     -0.000369     -0.000263      0.000000
    269 O     c      -0.000873      0.000369      0.000263      0.000000
    270 O     c       0.000106     -0.000201      0.001425      0.000000
    271 O     c      -0.000106      0.000201     -0.001425      0.000000
    272 O     c       0.001154     -0.000949     -0.000961      0.000000
    273 O     c      -0.001154      0.000949      0.000961      0.000000
    274 O     c       0.000005      0.000512     -0.000027      0.000000
    275 O     c      -0.000005     -0.000512      0.000027      0.000000
    276 O     c      -0.000087      0.000797      0.000062      0.000000
    277 O     c       0.000087     -0.000797     -0.000062      0.000000
    278 O     c      -0.000224     -0.000184      0.001670      0.000000
    279 O     c       0.000224      0.000184     -0.001669      0.000000
    280 O     c       0.000042     -0.000007     -0.001252      0.000000
    281 O     c      -0.000042      0.000007      0.001252      0.000000
    282 O     c      -0.001258      0.000078     -0.000810      0.000000
    283 O     c       0.001258     -0.000078      0.000810      0.000000
    284 O     c       0.000190     -0.000650     -0.000595      0.000000
    285 O     c      -0.000190      0.000650      0.000596      0.000000
    286 O     c       0.000724      0.001093     -0.000343      0.000000
    287 O     c      -0.000724     -0.001092      0.000343      0.000000
    288 O     c       0.000000      0.000000      0.000000      0.000000
    289 O     s       0.000769      0.000516      0.000868      0.000000
    290 O     s       0.000605     -0.000550     -0.001798      0.000000
    291 O     s      -0.000605      0.000550      0.001799      0.000000
    292 O     s      -0.001189      0.000664      0.000594      0.000000
    293 O     s       0.001189     -0.000664     -0.000594      0.000000
    294 O     s      -0.000353     -0.000091     -0.002574      0.000000
    295 O     s       0.000353      0.000091      0.002574      0.000000
    296 O     s      -0.002290      0.000998      0.000526      0.000000
    297 O     s       0.002291     -0.000998     -0.000525      0.000000
    298 O     s       0.000219     -0.000302      0.000075      0.000000
    299 O     s      -0.000219      0.000302     -0.000075      0.000000
    300 O     s       0.000250     -0.000927      0.000072      0.000000
    301 O     s      -0.000251      0.000927     -0.000072      0.000000
    302 O     s       0.000870      0.000607     -0.001652      0.000000
    303 O     s      -0.000870     -0.000607      0.001652      0.000000
    304 O     s      -0.000220     -0.000046      0.001736      0.000000
    305 O     s       0.000220      0.000046     -0.001736      0.000000
    306 O     s       0.001903      0.000052      0.001192      0.000000
    307 O     s      -0.001903     -0.000052     -0.001192      0.000000
    308 O     s       0.000171      0.000529      0.000907      0.000000
    309 O     s      -0.000171     -0.000529     -0.000907      0.000000
    310 O     s      -0.000349     -0.000929      0.001054      0.000000
    311 O     s       0.000349      0.000928     -0.001054      0.000000
    312 O     s       0.000042     -0.000001     -0.000065      0.000000
    313 O     s      -0.000596     -0.000754     -0.000612      0.000000
    314 O     s       0.000605     -0.000550     -0.001798      0.000000
    315 O     s      -0.000605      0.000550      0.001798      0.000000
    316 O     s      -0.001189      0.000664      0.000594      0.000000
    317 O     s       0.001189     -0.000664     -0.000594      0.000000
    318 O     s      -0.000353     -0.000091     -0.002574      0.000000
    319 O     s       0.000353      0.000091      0.002574      0.000000
    320 O     s      -0.002291      0.000998      0.000526      0.000000
    321 O     s       0.002291     -0.000998     -0.000526      0.000000
    322 O     s       0.000219     -0.000302      0.000075      0.000000
    323 O     s      -0.000220      0.000302     -0.000075      0.000000
    324 O     s       0.000251     -0.000927      0.000072      0.000000
    325 O     s      -0.000251      0.000927     -0.000072      0.000000
    326 O     s       0.000870      0.000607     -0.001652      0.000000
    327 O     s      -0.000870     -0.000607      0.001652      0.000000
    328 O     s      -0.000220     -0.000046      0.001736      0.000000
    329 O     s       0.000220      0.000046     -0.001736      0.000000
    330 O     s       0.001903      0.000052      0.001192      0.000000
    331 O     s      -0.001903     -0.000052     -0.001192      0.000000
    332 O     s       0.000171      0.000529      0.000907      0.000000
    333 O     s      -0.000171     -0.000529     -0.000907      0.000000
    334 O     s      -0.000349     -0.000928      0.001054      0.000000
    335 O     s       0.000349      0.000928     -0.001053      0.000000
    336 O     s      -0.000449     -0.000672     -0.000554      0.000000
    337 O     s       0.000462      0.000798      0.000346      0.000000
    338 O     s       0.000605     -0.000550     -0.001798      0.000000
    339 O     s      -0.000605      0.000550      0.001799      0.000000
    340 O     s      -0.001189      0.000664      0.000594      0.000000
    341 O     s       0.001189     -0.000664     -0.000594      0.000000
    342 O     s      -0.000353     -0.000091     -0.002574      0.000000
    343 O     s       0.000353      0.000091      0.002574      0.000000
    344 O     s      -0.002290      0.000998      0.000526      0.000000
    345 O     s       0.002290     -0.000998     -0.000526      0.000000
    346 O     s       0.000219     -0.000302      0.000075      0.000000
    347 O     s      -0.000219      0.000302     -0.000075      0.000000
    348 O     s       0.000251     -0.000927      0.000072      0.000000
    349 O     s      -0.000251      0.000927     -0.000072      0.000000
    350 O     s       0.000870      0.000607     -0.001652      0.000000
    351 O     s      -0.000870     -0.000607      0.001652      0.000000
    352 O     s      -0.000220     -0.000046      0.001737      0.000000
    353 O     s       0.000220      0.000046     -0.001736      0.000000
    354 O     s       0.001903      0.000052      0.001192      0.000000
    355 O     s      -0.001903     -0.000052     -0.001192      0.000000
    356 O     s       0.000171      0.000529      0.000907      0.000000
    357 O     s      -0.000171     -0.000529     -0.000907      0.000000
    358 O     s      -0.000349     -0.000928      0.001053      0.000000
    359 O     s       0.000349      0.000928     -0.001053      0.000000
    360 O     s       0.000901      0.000589      0.000369      0.000000
    361 O     s      -0.000565     -0.001013     -0.000403      0.000000
    362 O     s       0.000605     -0.000550     -0.001798      0.000000
    363 O     s      -0.000605      0.000550      0.001798      0.000000
    364 O     s      -0.001189      0.000664      0.000594      0.000000
    365 O     s       0.001189     -0.000664     -0.000594      0.000000
    366 O     s      -0.000353     -0.000091     -0.002574      0.000000
    367 O     s       0.000353      0.000091      0.002574      0.000000
    368 O     s      -0.002290      0.000998      0.000526      0.000000
    369 O     s       0.002291     -0.000998     -0.000526      0.000000
    370 O     s       0.000219     -0.000302      0.000075      0.000000
    371 O     s      -0.000220      0.000302     -0.000076      0.000000
    372 O     s       0.000251     -0.000927      0.000072      0.000000
    373 O     s      -0.000251      0.000927     -0.000072      0.000000
    374 O     s       0.000870      0.000607     -0.001652      0.000000
    375 O     s      -0.000870     -0.000607      0.001652      0.000000
    376 O     s      -0.000220     -0.000046      0.001736      0.000000
    377 O     s       0.000220      0.000046     -0.001736      0.000000
    378 O     s       0.001903      0.000052      0.001192      0.000000
    379 O     s      -0.001903     -0.000052     -0.001192      0.000000
    380 O     s       0.000171      0.000529      0.000908      0.000000
    381 O     s      -0.000171     -0.000529     -0.000907      0.000000
    382 O     s      -0.000349     -0.000929      0.001053      0.000000
    383 O     s       0.000349      0.000928     -0.001053      0.000000
    384 O     s       0.000607     -0.000209     -0.000463      0.000000
    385 O     s      -0.000730     -0.000629     -0.000777      0.000000
    386 O     s       0.000605     -0.000550     -0.001798      0.000000
    387 O     s      -0.000605      0.000550      0.001798      0.000000
    388 O     s      -0.001189      0.000664      0.000594      0.000000
    389 O     s       0.001189     -0.000664     -0.000594      0.000000
    390 O     s      -0.000353     -0.000091     -0.002574      0.000000
    391 O     s       0.000353      0.000091      0.002574      0.000000
    392 O     s      -0.002291      0.000998      0.000526      0.000000
    393 O     s       0.002291     -0.000998     -0.000526      0.000000
    394 O     s       0.000219     -0.000302      0.000075      0.000000
    395 O     s      -0.000219      0.000302     -0.000075      0.000000
    396 O     s       0.000251     -0.000927      0.000072      0.000000
    397 O     s      -0.000251      0.000927     -0.000072      0.000000
    398 O     s       0.000870      0.000607     -0.001652      0.000000
    399 O     s      -0.000870     -0.000607      0.001652      0.000000
    400 O     s      -0.000220     -0.000046      0.001736      0.000000
    401 O     s       0.000220      0.000046     -0.001736      0.000000
    402 O     s       0.001903      0.000052      0.001192      0.000000
    403 O     s      -0.001903     -0.000052     -0.001192      0.000000
    404 O     s       0.000171      0.000529      0.000907      0.000000
    405 O     s      -0.000171     -0.000529     -0.000907      0.000000
    406 O     s      -0.000349     -0.000928      0.001053      0.000000
    407 O     s       0.000349      0.000928     -0.001054      0.000000
    408 O     s       0.000037     -0.000063     -0.000100      0.000000
    409 O     s      -0.000547     -0.000710     -0.000585      0.000000
    410 O     s       0.000605     -0.000550     -0.001799      0.000000
    411 O     s      -0.000605      0.000550      0.001798      0.000000
    412 O     s      -0.001189      0.000664      0.000594      0.000000
    413 O     s       0.001189     -0.000664     -0.000594      0.000000
    414 O     s      -0.000353     -0.000091     -0.002574      0.000000
    415 O     s       0.000353      0.000091      0.002574      0.000000
    416 O     s      -0.002291      0.000998      0.000525      0.000000
    417 O     s       0.002291     -0.000998     -0.000526      0.000000
    418 O     s       0.000219     -0.000302      0.000075      0.000000
    419 O     s      -0.000219      0.000302     -0.000075      0.000000
    420 O     s       0.000251     -0.000927      0.000072      0.000000
    421 O     s      -0.000250      0.000927     -0.000072      0.000000
    422 O     s       0.000870      0.000607     -0.001652      0.000000
    423 O     s      -0.000870     -0.000607      0.001652      0.000000
    424 O     s      -0.000220     -0.000046      0.001736      0.000000
    425 O     s       0.000220      0.000046     -0.001736      0.000000
    426 O     s       0.001903      0.000052      0.001192      0.000000
    427 O     s      -0.001903     -0.000052     -0.001191      0.000000
    428 O     s       0.000171      0.000529      0.000907      0.000000
    429 O     s      -0.000171     -0.000529     -0.000907      0.000000
    430 O     s      -0.000349     -0.000928      0.001054      0.000000
    431 O     s       0.000349      0.000928     -0.001054      0.000000
    432 O     s      -0.000525     -0.000669     -0.000608      0.000000
    433 O     s      -0.000643      0.000001     -0.000886      0.000000
    434 O     s       0.000605     -0.000550     -0.001799      0.000000
    435 O     s      -0.000605      0.000550      0.001798      0.000000
    436 O     s      -0.001189      0.000664      0.000594      0.000000
    437 O     s       0.001189     -0.000664     -0.000594      0.000000
    438 O     s      -0.000353     -0.000091     -0.002575      0.000000
    439 O     s       0.000353      0.000091      0.002574      0.000000
    440 O     s      -0.002291      0.000998      0.000526      0.000000
    441 O     s       0.002290     -0.000998     -0.000526      0.000000
    442 O     s       0.000219     -0.000302      0.000075      0.000000
    443 O     s      -0.000219      0.000302     -0.000075      0.000000
    444 O     s       0.000251     -0.000927      0.000072      0.000000
    445 O     s      -0.000251      0.000927     -0.000072      0.000000
    446 O     s       0.000870      0.000607     -0.001652      0.000000
    447 O     s      -0.000870     -0.000607      0.001652      0.000000
    448 O     s      -0.000220     -0.000046      0.001736      0.000000
    449 O     s       0.000220      0.000046     -0.001736      0.000000
    450 O     s       0.001903      0.000052      0.001192      0.000000
    451 O     s      -0.001903     -0.000052     -0.001192      0.000000
    452 O     s       0.000171      0.000529      0.000907      0.000000
    453 O     s      -0.000171     -0.000529     -0.000907      0.000000
    454 O     s      -0.000349     -0.000928      0.001053      0.000000
    455 O     s       0.000349      0.000928     -0.001053      0.000000
    456 O     s       0.000054     -0.000283     -0.000267      0.000000
    457 O     s      -0.000299     -0.000069     -0.000416      0.000000
    458 O     s       0.000605     -0.000550     -0.001799      0.000000
    459 O     s      -0.000605      0.000550      0.001798      0.000000
    460 O     s      -0.001189      0.000664      0.000594      0.000000
    461 O     s       0.001189     -0.000664     -0.000594      0.000000
    462 O     s      -0.000353     -0.000091     -0.002574      0.000000
    463 O     s       0.000353      0.000091      0.002574      0.000000
    464 O     s      -0.002290      0.000998      0.000526      0.000000
    465 O     s       0.002291     -0.000998     -0.000525      0.000000
    466 O     s       0.000220     -0.000302      0.000076      0.000000
    467 O     s      -0.000219      0.000302     -0.000075      0.000000
    468 O     s       0.000251     -0.000927      0.000072      0.000000
    469 O     s      -0.000251      0.000927     -0.000072      0.000000
    470 O     s       0.000870      0.000607     -0.001652      0.000000
    471 O     s      -0.000870     -0.000607      0.001652      0.000000
    472 O     s      -0.000219     -0.000046      0.001736      0.000000
    473 O     s       0.000220      0.000046     -0.001736      0.000000
    474 O     s       0.001903      0.000052      0.001192      0.000000
    475 O     s      -0.001903     -0.000052     -0.001192      0.000000
    476 O     s       0.000171      0.000529      0.000907      0.000000
    477 O     s      -0.000171     -0.000529     -0.000907      0.000000
    478 O     s      -0.000349     -0.000929      0.001053      0.000000
    479 O     s       0.000349      0.000928     -0.001054      0.000000
    480 O     s       0.000231      0.000254      0.000147      0.000000
--------------------------------------------------------------------------------
  Maximum abs         0.002291      0.001093      0.002575      0.000000
--------------------------------------------------------------------------------


  Time to end of optimisation =      11.5495 seconds


  Peak dynamic memory used =      10.15 MB 


  Timing analysis for GULP :

--------------------------------------------------------------------------------
  Task / Subroutine                                          Time (Seconds)
--------------------------------------------------------------------------------
  Calculation of reciprocal space energy and derivatives          0.7151
  Calculation of real space energy and derivatives                5.8861
  Calculation of three-body energy and derivatives                0.8827
  Calculation and manipulation of Hessian matrix                  2.8141
  Calculation of matrix inversion                                 0.5896
  Symmetry generation of equivalent positions                     0.0006
  Global summation overhead                                       0.6359
--------------------------------------------------------------------------------
  Total CPU time                                                 11.5495
--------------------------------------------------------------------------------


  Dump file written as ReferenceDataBase/ITQ-69.grs
  CIF file written as ReferenceDataBase/ITQ-69_opt.cif


  Job Finished at 14:14.41 20th April      2023                               

