********************************************************************************
*                       GENERAL UTILITY LATTICE PROGRAM                        *
*                                 Julian Gale                                  *
*                       Curtin Institute for Computation                       *
*                    School of Molecular and Life Sciences                     *
*                    Curtin University, Western Australia                      *
********************************************************************************
* Version = 6.1.2 * Last modified =   3rd November 2022                        *
********************************************************************************
*  optimise     - perform optimisation run                                     *
*  conp         - constant pressure calculation                                *
*  nosymmetry   - turn off symmetry after initial structure generation         *
********************************************************************************

  Job Started  at 14:15.32 20th April      2023                               

  Number of CPUs =     8


  Total number of configurations input =      1

********************************************************************************
*  Input for Configuration =   1 : ReferenceDataBase/JZO                       *
********************************************************************************

  Formula = Si624O1248                                                  

  Number of irreducible atoms/shells =    3120


  Total number atoms/shells =    3120

  Dimensionality = 3               :  Bulk   



  Cartesian lattice vectors (Angstroms) :

       43.149600    0.000000    0.000000
        0.000000   43.149600    0.000000
        0.000000    0.000000   24.930100

  Cell parameters (Angstroms/Degrees):

  a =      43.1496    alpha =  90.0000
  b =      43.1496    beta  =  90.0000
  c =      24.9301    gamma =  90.0000

  Initial cell volume =       46417.053534 Angs**3

  Temperature of configuration =   0.00     K 

  Pressure of configuration =         0.000 GPa 

  Fractional coordinates of asymmetric unit :

--------------------------------------------------------------------------------
   No.  Atomic       x           y          z         Charge      Occupancy
        Label      (Frac)      (Frac)     (Frac)        (e)         (Frac)  
--------------------------------------------------------------------------------
      1 Si    c    0.249779 *  0.110578 *  0.620729 *   4.00000    1.000000    
      2 Si    c    0.191296 *  0.022862 *  0.678554 *   4.00000    1.000000    
      3 Si    c    0.095759 *  0.023618 *  0.787634 *   4.00000    1.000000    
      4 Si    c    0.061426 *  0.501856 *  0.623948 *   4.00000    1.000000    
      5 Si    c    0.121194 *  0.023238 *  0.673519 *   4.00000    1.000000    
      6 Si    c    0.036444 *  0.559185 *  0.566844 *   4.00000    1.000000    
      7 Si    c    0.344099 *  0.056150 *  0.555512 *   4.00000    1.000000    
      8 Si    c    0.191711 *  0.095241 *  0.682118 *   4.00000    1.000000    
      9 Si    c    0.122138 *  0.095779 *  0.674615 *   4.00000    1.000000    
     10 Si    c    0.063428 *  0.113433 *  0.619732 *   4.00000    1.000000    
     11 Si    c    0.270765 *  0.054731 *  0.551415 *   4.00000    1.000000    
     12 Si    c    0.036828 *  0.056051 *  0.556942 *   4.00000    1.000000    
     13 Si    c    0.094999 *  0.095539 *  0.787171 *   4.00000    1.000000    
     14 Si    c    0.035928 *  0.157045 *  0.538804 *   4.00000    1.000000    
     15 Si    c    0.036057 *  0.629501 *  0.575151 *   4.00000    1.000000    
     16 Si    c    0.035135 *  0.022829 *  0.731512 *   4.00000    1.000000    
     17 Si    c    0.036423 *  0.716129 *  0.521859 *   4.00000    1.000000    
     18 Si    c    0.035183 *  0.094734 *  0.727878 *   4.00000    1.000000    
     19 Si    c    0.250604 *  0.501037 *  0.374726 *   4.00000    1.000000    
     20 Si    c    0.362678 *  0.613111 *  0.374726 *   4.00000    1.000000    
     21 Si    c    0.064056 *  0.314489 *  0.374726 *   4.00000    1.000000    
     22 O     c    0.000475 *  0.061537 *  0.566625 *   0.86902    1.000000    
     23 O     c    0.214632 *  0.005140 *  0.639274 *   0.86902    1.000000    
     24 O     c    0.215704 *  0.113898 *  0.645615 *   0.86902    1.000000    
     25 O     c    0.057548 *  0.536494 *  0.602021 *   0.86902    1.000000    
     26 O     c    0.196026 *  0.011933 *  0.739430 *   0.86902    1.000000    
     27 O     c    0.198472 *  0.059073 *  0.674902 *   0.86902    1.000000    
     28 O     c    0.059244 *  0.015860 *  0.779663 *   0.86902    1.000000    
     29 O     c    0.251722 *  0.081626 *  0.580605 *   0.86902    1.000000    
     30 O     c    0.156533 *  0.014945 *  0.658927 *   0.86902    1.000000    
     31 O     c    0.114644 *  0.059593 *  0.668398 *   0.86902    1.000000    
     32 O     c    0.195478 *  0.104691 *  0.743857 *   0.86902    1.000000    
     33 O     c    0.098068 *  0.005803 *  0.632905 *   0.86902    1.000000    
     34 O     c    0.361505 *  0.084137 *  0.584575 *   0.86902    1.000000    
     35 O     c    0.114813 *  0.105898 *  0.735476 *   0.86902    1.000000    
     36 O     c    0.099982 *  0.113657 *  0.633166 *   0.86902    1.000000    
     37 O     c    0.307156 *  0.060802 *  0.561416 *   0.86902    1.000000    
     38 O     c    0.058513 *  0.651286 *  0.610377 *   0.86902    1.000000    
     39 O     c    0.114500 *  0.013196 *  0.734684 *   0.86902    1.000000    
     40 O     c    0.157496 *  0.103869 *  0.661187 *   0.86902    1.000000    
     41 O     c    0.045254 *  0.555468 *  0.504885 *   0.86902    1.000000    
     42 O     c    0.260849 *  0.021350 *  0.573693 *   0.86902    1.000000    
     43 O     c    0.101296 *  0.059632 *  0.798839 *   0.86902    1.000000    
     44 O     c    0.255111 *  0.142589 *  0.588961 *   0.86902    1.000000    
     45 O     c    0.273510 *  0.105684 *  0.669283 *   0.86902    1.000000    
     46 O     c    0.041480 *  0.635495 *  0.512272 *   0.86902    1.000000    
     47 O     c    0.058672 *  0.102833 *  0.776486 *   0.86902    1.000000    
     48 O     c    0.056829 *  0.145006 *  0.587642 *   0.86902    1.000000    
     49 O     c    0.047190 *  0.023371 *  0.580883 *   0.86902    1.000000    
     50 O     c    0.038660 *  0.058504 *  0.713179 *   0.86902    1.000000    
     51 O     c    0.042950 *  0.002422 *  0.679778 *   0.86902    1.000000    
     52 O     c    0.045514 *  0.192475 *  0.525237 *   0.86902    1.000000    
     53 O     c    0.055172 *  0.083888 *  0.584123 *   0.86902    1.000000    
     54 O     c    0.043866 *  0.593864 *  0.587216 *   0.86902    1.000000    
     55 O     c    0.043645 *  0.113559 *  0.674521 *   0.86902    1.000000    
     56 O     c    0.106771 *  0.113702 *  0.839709 *   0.86902    1.000000    
     57 O     c    0.055867 *  0.709233 *  0.574900 *   0.86902    1.000000    
     58 O     c    0.000475 *  0.550982 *  0.575657 *   0.86902    1.000000    
     59 O     c    0.000475 *  0.154840 *  0.557592 *   0.86902    1.000000    
     60 O     c    0.000475 *  0.103070 *  0.746755 *   0.86902    1.000000    
     61 O     c    0.000475 *  0.637452 *  0.589640 *   0.86902    1.000000    
     62 O     c    0.000475 *  0.708172 *  0.747650 *   0.86902    1.000000    
     63 O     c    0.000475 *  0.015429 *  0.752084 *   0.86902    1.000000    
     64 O     c    0.000475 *  0.711072 *  0.536884 *   0.86902    1.000000    
     65 Si    c    0.251171 *  0.891237 *  0.120730 *   4.00000    1.000000    
     66 Si    c    0.309654 *  0.978953 *  0.178554 *   4.00000    1.000000    
     67 Si    c    0.405190 *  0.978197 *  0.287634 *   4.00000    1.000000    
     68 Si    c    0.439523 *  0.499960 *  0.123948 *   4.00000    1.000000    
     69 Si    c    0.379756 *  0.978577 *  0.173519 *   4.00000    1.000000    
     70 Si    c    0.464506 *  0.442631 *  0.066844 *   4.00000    1.000000    
     71 Si    c    0.156851 *  0.945665 *  0.055512 *   4.00000    1.000000    
     72 Si    c    0.309238 *  0.906574 *  0.182118 *   4.00000    1.000000    
     73 Si    c    0.378812 *  0.906036 *  0.174615 *   4.00000    1.000000    
     74 Si    c    0.437521 *  0.888383 *  0.119732 *   4.00000    1.000000    
     75 Si    c    0.230185 *  0.947084 *  0.051415 *   4.00000    1.000000    
     76 Si    c    0.464122 *  0.945765 *  0.056942 *   4.00000    1.000000    
     77 Si    c    0.405951 *  0.906276 *  0.287170 *   4.00000    1.000000    
     78 Si    c    0.465022 *  0.844770 *  0.038804 *   4.00000    1.000000    
     79 Si    c    0.464892 *  0.372315 *  0.075151 *   4.00000    1.000000    
     80 Si    c    0.465815 *  0.978986 *  0.231512 *   4.00000    1.000000    
     81 Si    c    0.464527 *  0.285687 *  0.021859 *   4.00000    1.000000    
     82 Si    c    0.465767 *  0.907082 *  0.227878 *   4.00000    1.000000    
     83 Si    c    0.250345 *  0.500778 *  0.874726 *   4.00000    1.000000    
     84 Si    c    0.138272 *  0.388704 *  0.874726 *   4.00000    1.000000    
     85 Si    c    0.436894 *  0.687326 *  0.874726 *   4.00000    1.000000    
     86 O     c    0.500475 *  0.940278 *  0.066625 *   0.86902    1.000000    
     87 O     c    0.286318 *  0.996676 *  0.139274 *   0.86902    1.000000    
     88 O     c    0.285246 *  0.887918 *  0.145615 *   0.86902    1.000000    
     89 O     c    0.443401 *  0.465321 *  0.102021 *   0.86902    1.000000    
     90 O     c    0.304923 *  0.989883 *  0.239430 *   0.86902    1.000000    
     91 O     c    0.302478 *  0.942742 *  0.174902 *   0.86902    1.000000    
     92 O     c    0.441706 *  0.985955 *  0.279663 *   0.86902    1.000000    
     93 O     c    0.249227 *  0.920190 *  0.080605 *   0.86902    1.000000    
     94 O     c    0.344417 *  0.986870 *  0.158927 *   0.86902    1.000000    
     95 O     c    0.386306 *  0.942222 *  0.168398 *   0.86902    1.000000    
     96 O     c    0.305471 *  0.897125 *  0.243857 *   0.86902    1.000000    
     97 O     c    0.402881 *  0.996013 *  0.132905 *   0.86902    1.000000    
     98 O     c    0.139445 *  0.917679 *  0.084575 *   0.86902    1.000000    
     99 O     c    0.386137 *  0.895917 *  0.235476 *   0.86902    1.000000    
    100 O     c    0.400968 *  0.888159 *  0.133166 *   0.86902    1.000000    
    101 O     c    0.193794 *  0.941014 *  0.061416 *   0.86902    1.000000    
    102 O     c    0.442436 *  0.350529 *  0.110377 *   0.86902    1.000000    
    103 O     c    0.386450 *  0.988619 *  0.234684 *   0.86902    1.000000    
    104 O     c    0.343453 *  0.897946 *  0.161187 *   0.86902    1.000000    
    105 O     c    0.455696 *  0.446347 *  0.004885 *   0.86902    1.000000    
    106 O     c    0.240100 *  0.980465 *  0.073693 *   0.86902    1.000000    
    107 O     c    0.399654 *  0.942183 *  0.298839 *   0.86902    1.000000    
    108 O     c    0.245838 *  0.859226 *  0.088961 *   0.86902    1.000000    
    109 O     c    0.227440 *  0.896131 *  0.169283 *   0.86902    1.000000    
    110 O     c    0.459469 *  0.366321 *  0.012272 *   0.86902    1.000000    
    111 O     c    0.442277 *  0.898982 *  0.276486 *   0.86902    1.000000    
    112 O     c    0.444121 *  0.856809 *  0.087642 *   0.86902    1.000000    
    113 O     c    0.453759 *  0.978445 *  0.080883 *   0.86902    1.000000    
    114 O     c    0.462289 *  0.943311 *  0.213179 *   0.86902    1.000000    
    115 O     c    0.458000 *  0.999393 *  0.179778 *   0.86902    1.000000    
    116 O     c    0.455435 *  0.809340 *  0.025237 *   0.86902    1.000000    
    117 O     c    0.445777 *  0.917927 *  0.084123 *   0.86902    1.000000    
    118 O     c    0.457084 *  0.407951 *  0.087216 *   0.86902    1.000000    
    119 O     c    0.457305 *  0.888256 *  0.174521 *   0.86902    1.000000    
    120 O     c    0.394179 *  0.888114 *  0.339709 *   0.86902    1.000000    
    121 O     c    0.445083 *  0.292582 *  0.074900 *   0.86902    1.000000    
    122 O     c    0.500475 *  0.450834 *  0.075657 *   0.86902    1.000000    
    123 O     c    0.500475 *  0.846975 *  0.057592 *   0.86902    1.000000    
    124 O     c    0.500475 *  0.898746 *  0.246755 *   0.86902    1.000000    
    125 O     c    0.500475 *  0.364363 *  0.089640 *   0.86902    1.000000    
    126 O     c    0.500475 *  0.293643 *  0.247650 *   0.86902    1.000000    
    127 O     c    0.500475 *  0.986386 *  0.252085 *   0.86902    1.000000    
    128 O     c    0.500475 *  0.290743 *  0.036884 *   0.86902    1.000000    
    129 Si    c    0.140804 *  0.000212 *  0.870729 *   4.00000    1.000000    
    130 Si    c    0.228521 *  0.941729 *  0.928554 *   4.00000    1.000000    
    131 Si    c    0.227764 *  0.846192 *  0.037634 *   4.00000    1.000000    
    132 Si    c    0.749527 *  0.811859 *  0.873948 *   4.00000    1.000000    
    133 Si    c    0.228145 *  0.871627 *  0.923519 *   4.00000    1.000000    
    134 Si    c    0.692198 *  0.786876 *  0.816844 *   4.00000    1.000000    
    135 Si    c    0.195232 *  0.094532 *  0.805512 *   4.00000    1.000000    
    136 Si    c    0.156141 *  0.942144 *  0.932118 *   4.00000    1.000000    
    137 Si    c    0.155603 *  0.872571 *  0.924615 *   4.00000    1.000000    
    138 Si    c    0.137950 *  0.813861 *  0.869732 *   4.00000    1.000000    
    139 Si    c    0.196652 *  0.021198 *  0.801415 *   4.00000    1.000000    
    140 Si    c    0.195332 *  0.787261 *  0.806942 *   4.00000    1.000000    
    141 Si    c    0.155843 *  0.845432 *  0.037171 *   4.00000    1.000000    
    142 Si    c    0.094337 *  0.786361 *  0.788804 *   4.00000    1.000000    
    143 Si    c    0.621882 *  0.786490 *  0.825151 *   4.00000    1.000000    
    144 Si    c    0.228553 *  0.785567 *  0.981512 *   4.00000    1.000000    
    145 Si    c    0.535254 *  0.786856 *  0.771859 *   4.00000    1.000000    
    146 Si    c    0.156649 *  0.785615 *  0.977878 *   4.00000    1.000000    
    147 Si    c    0.750345 *  0.001037 *  0.624726 *   4.00000    1.000000    
    148 Si    c    0.638272 *  0.113111 *  0.624726 *   4.00000    1.000000    
    149 Si    c    0.936893 *  0.814489 *  0.624726 *   4.00000    1.000000    
    150 O     c    0.189845 *  0.750908 *  0.816625 *   0.86902    1.000000    
    151 O     c    0.246243 *  0.965065 *  0.889274 *   0.86902    1.000000    
    152 O     c    0.137485 *  0.966136 *  0.895615 *   0.86902    1.000000    
    153 O     c    0.714888 *  0.807981 *  0.852021 *   0.86902    1.000000    
    154 O     c    0.239450 *  0.946459 *  0.989430 *   0.86902    1.000000    
    155 O     c    0.192309 *  0.948905 *  0.924902 *   0.86902    1.000000    
    156 O     c    0.235523 *  0.809677 *  0.029663 *   0.86902    1.000000    
    157 O     c    0.169757 *  0.002155 *  0.830605 *   0.86902    1.000000    
    158 O     c    0.236438 *  0.906966 *  0.908927 *   0.86902    1.000000    
    159 O     c    0.191789 *  0.865077 *  0.918398 *   0.86902    1.000000    
    160 O     c    0.146692 *  0.945911 *  0.993857 *   0.86902    1.000000    
    161 O     c    0.245580 *  0.848501 *  0.882905 *   0.86902    1.000000    
    162 O     c    0.167246 *  0.111938 *  0.834575 *   0.86902    1.000000    
    163 O     c    0.145485 *  0.865246 *  0.985476 *   0.86902    1.000000    
    164 O     c    0.137726 *  0.850415 *  0.883166 *   0.86902    1.000000    
    165 O     c    0.190581 *  0.057589 *  0.811416 *   0.86902    1.000000    
    166 O     c    0.600096 *  0.808946 *  0.860377 *   0.86902    1.000000    
    167 O     c    0.238186 *  0.864933 *  0.984684 *   0.86902    1.000000    
    168 O     c    0.147513 *  0.907929 *  0.911187 *   0.86902    1.000000    
    169 O     c    0.695914 *  0.795687 *  0.754885 *   0.86902    1.000000    
    170 O     c    0.230032 *  0.011282 *  0.823693 *   0.86902    1.000000    
    171 O     c    0.191750 *  0.851729 *  0.048839 *   0.86902    1.000000    
    172 O     c    0.108793 *  0.005544 *  0.838961 *   0.86902    1.000000    
    173 O     c    0.145698 *  0.023943 *  0.919283 *   0.86902    1.000000    
    174 O     c    0.615888 *  0.791913 *  0.762272 *   0.86902    1.000000    
    175 O     c    0.148549 *  0.809105 *  0.026486 *   0.86902    1.000000    
    176 O     c    0.106376 *  0.807261 *  0.837642 *   0.86902    1.000000    
    177 O     c    0.228012 *  0.797623 *  0.830883 *   0.86902    1.000000    
    178 O     c    0.192878 *  0.789093 *  0.963179 *   0.86902    1.000000    
    179 O     c    0.248960 *  0.793383 *  0.929778 *   0.86902    1.000000    
    180 O     c    0.058907 *  0.795947 *  0.775237 *   0.86902    1.000000    
    181 O     c    0.167494 *  0.805605 *  0.834123 *   0.86902    1.000000    
    182 O     c    0.657518 *  0.794298 *  0.837216 *   0.86902    1.000000    
    183 O     c    0.137823 *  0.794077 *  0.924521 *   0.86902    1.000000    
    184 O     c    0.137681 *  0.857204 *  0.089709 *   0.86902    1.000000    
    185 O     c    0.542150 *  0.806300 *  0.824900 *   0.86902    1.000000    
    186 O     c    0.700401 *  0.750908 *  0.825657 *   0.86902    1.000000    
    187 O     c    0.096542 *  0.750908 *  0.807592 *   0.86902    1.000000    
    188 O     c    0.148313 *  0.750908 *  0.996755 *   0.86902    1.000000    
    189 O     c    0.613930 *  0.750908 *  0.839640 *   0.86902    1.000000    
    190 O     c    0.543210 *  0.750908 *  0.997650 *   0.86902    1.000000    
    191 O     c    0.235953 *  0.750908 *  0.002085 *   0.86902    1.000000    
    192 O     c    0.540311 *  0.750908 *  0.786884 *   0.86902    1.000000    
    193 Si    c    0.360146 *  0.001604 *  0.370729 *   4.00000    1.000000    
    194 Si    c    0.272429 *  0.060087 *  0.428554 *   4.00000    1.000000    
    195 Si    c    0.273185 *  0.155623 *  0.537634 *   4.00000    1.000000    
    196 Si    c    0.751423 *  0.189956 *  0.373948 *   4.00000    1.000000    
    197 Si    c    0.272805 *  0.130189 *  0.423519 *   4.00000    1.000000    
    198 Si    c    0.808752 *  0.214939 *  0.316844 *   4.00000    1.000000    
    199 Si    c    0.305717 *  0.907284 *  0.305512 *   4.00000    1.000000    
    200 Si    c    0.344808 *  0.059671 *  0.432118 *   4.00000    1.000000    
    201 Si    c    0.345346 *  0.129245 *  0.424615 *   4.00000    1.000000    
    202 Si    c    0.363000 *  0.187954 *  0.369732 *   4.00000    1.000000    
    203 Si    c    0.304298 *  0.980618 *  0.301415 *   4.00000    1.000000    
    204 Si    c    0.305618 *  0.214555 *  0.306942 *   4.00000    1.000000    
    205 Si    c    0.345107 *  0.156383 *  0.537171 *   4.00000    1.000000    
    206 Si    c    0.406613 *  0.215454 *  0.288804 *   4.00000    1.000000    
    207 Si    c    0.879068 *  0.215325 *  0.325151 *   4.00000    1.000000    
    208 Si    c    0.272396 *  0.216248 *  0.481512 *   4.00000    1.000000    
    209 Si    c    0.965696 *  0.214959 *  0.271859 *   4.00000    1.000000    
    210 Si    c    0.344301 *  0.216200 *  0.477878 *   4.00000    1.000000    
    211 Si    c    0.750604 *  0.000778 *  0.124726 *   4.00000    1.000000    
    212 Si    c    0.862678 *  0.888705 *  0.124726 *   4.00000    1.000000    
    213 Si    c    0.564056 *  0.187326 *  0.124726 *   4.00000    1.000000    
    214 O     c    0.311104 *  0.250908 *  0.316625 *   0.86902    1.000000    
    215 O     c    0.254707 *  0.036751 *  0.389274 *   0.86902    1.000000    
    216 O     c    0.363465 *  0.035679 *  0.395615 *   0.86902    1.000000    
    217 O     c    0.786061 *  0.193834 *  0.352021 *   0.86902    1.000000    
    218 O     c    0.261500 *  0.055356 *  0.489430 *   0.86902    1.000000    
    219 O     c    0.308641 *  0.052911 *  0.424902 *   0.86902    1.000000    
    220 O     c    0.265427 *  0.192139 *  0.529663 *   0.86902    1.000000    
    221 O     c    0.331193 *  0.999660 *  0.330605 *   0.86902    1.000000    
    222 O     c    0.264512 *  0.094850 *  0.408927 *   0.86902    1.000000    
    223 O     c    0.309160 *  0.136738 *  0.418398 *   0.86902    1.000000    
    224 O     c    0.354258 *  0.055904 *  0.493857 *   0.86902    1.000000    
    225 O     c    0.255370 *  0.153314 *  0.382905 *   0.86902    1.000000    
    226 O     c    0.333704 *  0.889877 *  0.334575 *   0.86902    1.000000    
    227 O     c    0.355465 *  0.136570 *  0.485476 *   0.86902    1.000000    
    228 O     c    0.363224 *  0.151401 *  0.383166 *   0.86902    1.000000    
    229 O     c    0.310369 *  0.944227 *  0.311416 *   0.86902    1.000000    
    230 O     c    0.900853 *  0.192869 *  0.360377 *   0.86902    1.000000    
    231 O     c    0.262763 *  0.136883 *  0.484684 *   0.86902    1.000000    
    232 O     c    0.353437 *  0.093886 *  0.411187 *   0.86902    1.000000    
    233 O     c    0.805035 *  0.206128 *  0.254885 *   0.86902    1.000000    
    234 O     c    0.270917 *  0.990533 *  0.323693 *   0.86902    1.000000    
    235 O     c    0.309199 *  0.150087 *  0.548839 *   0.86902    1.000000    
    236 O     c    0.392157 *  0.996271 *  0.338961 *   0.86902    1.000000    
    237 O     c    0.355251 *  0.977873 *  0.419283 *   0.86902    1.000000    
    238 O     c    0.885062 *  0.209902 *  0.262272 *   0.86902    1.000000    
    239 O     c    0.352400 *  0.192710 *  0.526486 *   0.86902    1.000000    
    240 O     c    0.394573 *  0.194554 *  0.337643 *   0.86902    1.000000    
    241 O     c    0.272938 *  0.204192 *  0.330883 *   0.86902    1.000000    
    242 O     c    0.308071 *  0.212722 *  0.463179 *   0.86902    1.000000    
    243 O     c    0.251989 *  0.208433 *  0.429778 *   0.86902    1.000000    
    244 O     c    0.442042 *  0.205868 *  0.275237 *   0.86902    1.000000    
    245 O     c    0.333455 *  0.196210 *  0.334123 *   0.86902    1.000000    
    246 O     c    0.843432 *  0.207517 *  0.337216 *   0.86902    1.000000    
    247 O     c    0.363127 *  0.207738 *  0.424521 *   0.86902    1.000000    
    248 O     c    0.363269 *  0.144612 *  0.589709 *   0.86902    1.000000    
    249 O     c    0.958800 *  0.195515 *  0.324900 *   0.86902    1.000000    
    250 O     c    0.800549 *  0.250908 *  0.325657 *   0.86902    1.000000    
    251 O     c    0.404407 *  0.250908 *  0.307592 *   0.86902    1.000000    
    252 O     c    0.352637 *  0.250908 *  0.496755 *   0.86902    1.000000    
    253 O     c    0.887019 *  0.250908 *  0.339640 *   0.86902    1.000000    
    254 O     c    0.957739 *  0.250908 *  0.497650 *   0.86902    1.000000    
    255 O     c    0.264996 *  0.250908 *  0.502084 *   0.86902    1.000000    
    256 O     c    0.960639 *  0.250908 *  0.286884 *   0.86902    1.000000    
    257 Si    c    0.251171 *  0.110578 *  0.878722 *   4.00000    1.000000    
    258 Si    c    0.309654 *  0.022862 *  0.820897 *   4.00000    1.000000    
    259 Si    c    0.405190 *  0.023618 *  0.711817 *   4.00000    1.000000    
    260 Si    c    0.439523 *  0.501856 *  0.875503 *   4.00000    1.000000    
    261 Si    c    0.379756 *  0.023238 *  0.825932 *   4.00000    1.000000    
    262 Si    c    0.464506 *  0.559185 *  0.932607 *   4.00000    1.000000    
    263 Si    c    0.156851 *  0.056150 *  0.943940 *   4.00000    1.000000    
    264 Si    c    0.309238 *  0.095241 *  0.817334 *   4.00000    1.000000    
    265 Si    c    0.378812 *  0.095779 *  0.824836 *   4.00000    1.000000    
    266 Si    c    0.437521 *  0.113433 *  0.879719 *   4.00000    1.000000    
    267 Si    c    0.230185 *  0.054731 *  0.948036 *   4.00000    1.000000    
    268 Si    c    0.464122 *  0.056051 *  0.942509 *   4.00000    1.000000    
    269 Si    c    0.405951 *  0.095539 *  0.712281 *   4.00000    1.000000    
    270 Si    c    0.465022 *  0.157045 *  0.960647 *   4.00000    1.000000    
    271 Si    c    0.464892 *  0.629501 *  0.924300 *   4.00000    1.000000    
    272 Si    c    0.465815 *  0.022829 *  0.767939 *   4.00000    1.000000    
    273 Si    c    0.464527 *  0.716129 *  0.977593 *   4.00000    1.000000    
    274 Si    c    0.465767 *  0.094734 *  0.771573 *   4.00000    1.000000    
    275 Si    c    0.250345 *  0.501037 *  0.124726 *   4.00000    1.000000    
    276 Si    c    0.138272 *  0.613111 *  0.124726 *   4.00000    1.000000    
    277 Si    c    0.436894 *  0.314489 *  0.124726 *   4.00000    1.000000    
    278 O     c    0.500475 *  0.061537 *  0.932826 *   0.86902    1.000000    
    279 O     c    0.286318 *  0.005140 *  0.860177 *   0.86902    1.000000    
    280 O     c    0.285246 *  0.113898 *  0.853837 *   0.86902    1.000000    
    281 O     c    0.443401 *  0.536494 *  0.897431 *   0.86902    1.000000    
    282 O     c    0.304923 *  0.011933 *  0.760021 *   0.86902    1.000000    
    283 O     c    0.302478 *  0.059073 *  0.824549 *   0.86902    1.000000    
    284 O     c    0.441706 *  0.015860 *  0.719788 *   0.86902    1.000000    
    285 O     c    0.249227 *  0.081626 *  0.918846 *   0.86902    1.000000    
    286 O     c    0.344417 *  0.014945 *  0.840525 *   0.86902    1.000000    
    287 O     c    0.386306 *  0.059593 *  0.831053 *   0.86902    1.000000    
    288 O     c    0.305471 *  0.104691 *  0.755595 *   0.86902    1.000000    
    289 O     c    0.402881 *  0.005803 *  0.866547 *   0.86902    1.000000    
    290 O     c    0.139445 *  0.084137 *  0.914877 *   0.86902    1.000000    
    291 O     c    0.386137 *  0.105898 *  0.763975 *   0.86902    1.000000    
    292 O     c    0.400968 *  0.113657 *  0.866286 *   0.86902    1.000000    
    293 O     c    0.193794 *  0.060802 *  0.938035 *   0.86902    1.000000    
    294 O     c    0.442436 *  0.651286 *  0.889074 *   0.86902    1.000000    
    295 O     c    0.386450 *  0.013196 *  0.764767 *   0.86902    1.000000    
    296 O     c    0.343453 *  0.103869 *  0.838265 *   0.86902    1.000000    
    297 O     c    0.455696 *  0.555468 *  0.994566 *   0.86902    1.000000    
    298 O     c    0.240100 *  0.021350 *  0.925758 *   0.86902    1.000000    
    299 O     c    0.399654 *  0.059632 *  0.700613 *   0.86902    1.000000    
    300 O     c    0.245838 *  0.142589 *  0.910491 *   0.86902    1.000000    
    301 O     c    0.227440 *  0.105684 *  0.830169 *   0.86902    1.000000    
    302 O     c    0.459469 *  0.635495 *  0.987179 *   0.86902    1.000000    
    303 O     c    0.442277 *  0.102833 *  0.722965 *   0.86902    1.000000    
    304 O     c    0.444121 *  0.145006 *  0.911809 *   0.86902    1.000000    
    305 O     c    0.453759 *  0.023371 *  0.918568 *   0.86902    1.000000    
    306 O     c    0.462289 *  0.058504 *  0.786272 *   0.86902    1.000000    
    307 O     c    0.458000 *  0.002422 *  0.819674 *   0.86902    1.000000    
    308 O     c    0.455435 *  0.192475 *  0.974215 *   0.86902    1.000000    
    309 O     c    0.445777 *  0.083888 *  0.915328 *   0.86902    1.000000    
    310 O     c    0.457084 *  0.593864 *  0.912236 *   0.86902    1.000000    
    311 O     c    0.457305 *  0.113559 *  0.824930 *   0.86902    1.000000    
    312 O     c    0.394179 *  0.113702 *  0.659742 *   0.86902    1.000000    
    313 O     c    0.445083 *  0.709233 *  0.924551 *   0.86902    1.000000    
    314 O     c    0.500475 *  0.550982 *  0.923794 *   0.86902    1.000000    
    315 O     c    0.500475 *  0.154840 *  0.941859 *   0.86902    1.000000    
    316 O     c    0.500475 *  0.103070 *  0.752696 *   0.86902    1.000000    
    317 O     c    0.500475 *  0.637452 *  0.909811 *   0.86902    1.000000    
    318 O     c    0.500475 *  0.708172 *  0.751802 *   0.86902    1.000000    
    319 O     c    0.500475 *  0.015429 *  0.747367 *   0.86902    1.000000    
    320 O     c    0.500475 *  0.711072 *  0.962567 *   0.86902    1.000000    
    321 Si    c    0.249779 *  0.891237 *  0.378722 *   4.00000    1.000000    
    322 Si    c    0.191296 *  0.978953 *  0.320897 *   4.00000    1.000000    
    323 Si    c    0.095759 *  0.978197 *  0.211817 *   4.00000    1.000000    
    324 Si    c    0.061426 *  0.499960 *  0.375503 *   4.00000    1.000000    
    325 Si    c    0.121194 *  0.978577 *  0.325932 *   4.00000    1.000000    
    326 Si    c    0.036444 *  0.442631 *  0.432607 *   4.00000    1.000000    
    327 Si    c    0.344099 *  0.945665 *  0.443940 *   4.00000    1.000000    
    328 Si    c    0.191711 *  0.906574 *  0.317334 *   4.00000    1.000000    
    329 Si    c    0.122138 *  0.906036 *  0.324836 *   4.00000    1.000000    
    330 Si    c    0.063428 *  0.888383 *  0.379719 *   4.00000    1.000000    
    331 Si    c    0.270765 *  0.947084 *  0.448036 *   4.00000    1.000000    
    332 Si    c    0.036828 *  0.945765 *  0.442509 *   4.00000    1.000000    
    333 Si    c    0.094999 *  0.906276 *  0.212281 *   4.00000    1.000000    
    334 Si    c    0.035928 *  0.844770 *  0.460647 *   4.00000    1.000000    
    335 Si    c    0.036057 *  0.372315 *  0.424300 *   4.00000    1.000000    
    336 Si    c    0.035135 *  0.978986 *  0.267939 *   4.00000    1.000000    
    337 Si    c    0.036423 *  0.285687 *  0.477593 *   4.00000    1.000000    
    338 Si    c    0.035183 *  0.907082 *  0.271573 *   4.00000    1.000000    
    339 Si    c    0.250604 *  0.500778 *  0.624726 *   4.00000    1.000000    
    340 Si    c    0.362678 *  0.388704 *  0.624726 *   4.00000    1.000000    
    341 Si    c    0.064056 *  0.687326 *  0.624726 *   4.00000    1.000000    
    342 O     c    0.000475 *  0.940278 *  0.432826 *   0.86902    1.000000    
    343 O     c    0.214632 *  0.996676 *  0.360177 *   0.86902    1.000000    
    344 O     c    0.215704 *  0.887918 *  0.353837 *   0.86902    1.000000    
    345 O     c    0.057548 *  0.465321 *  0.397431 *   0.86902    1.000000    
    346 O     c    0.196026 *  0.989883 *  0.260021 *   0.86902    1.000000    
    347 O     c    0.198472 *  0.942742 *  0.324549 *   0.86902    1.000000    
    348 O     c    0.059244 *  0.985955 *  0.219788 *   0.86902    1.000000    
    349 O     c    0.251722 *  0.920190 *  0.418846 *   0.86902    1.000000    
    350 O     c    0.156533 *  0.986870 *  0.340525 *   0.86902    1.000000    
    351 O     c    0.114644 *  0.942222 *  0.331053 *   0.86902    1.000000    
    352 O     c    0.195478 *  0.897125 *  0.255595 *   0.86902    1.000000    
    353 O     c    0.098068 *  0.996013 *  0.366547 *   0.86902    1.000000    
    354 O     c    0.361505 *  0.917679 *  0.414877 *   0.86902    1.000000    
    355 O     c    0.114813 *  0.895917 *  0.263975 *   0.86902    1.000000    
    356 O     c    0.099982 *  0.888159 *  0.366286 *   0.86902    1.000000    
    357 O     c    0.307156 *  0.941014 *  0.438035 *   0.86902    1.000000    
    358 O     c    0.058513 *  0.350529 *  0.389074 *   0.86902    1.000000    
    359 O     c    0.114500 *  0.988619 *  0.264767 *   0.86902    1.000000    
    360 O     c    0.157496 *  0.897946 *  0.338265 *   0.86902    1.000000    
    361 O     c    0.045254 *  0.446347 *  0.494566 *   0.86902    1.000000    
    362 O     c    0.260849 *  0.980465 *  0.425758 *   0.86902    1.000000    
    363 O     c    0.101296 *  0.942183 *  0.200613 *   0.86902    1.000000    
    364 O     c    0.255111 *  0.859226 *  0.410491 *   0.86902    1.000000    
    365 O     c    0.273510 *  0.896131 *  0.330169 *   0.86902    1.000000    
    366 O     c    0.041480 *  0.366321 *  0.487179 *   0.86902    1.000000    
    367 O     c    0.058672 *  0.898982 *  0.222965 *   0.86902    1.000000    
    368 O     c    0.056829 *  0.856809 *  0.411809 *   0.86902    1.000000    
    369 O     c    0.047190 *  0.978445 *  0.418568 *   0.86902    1.000000    
    370 O     c    0.038660 *  0.943311 *  0.286272 *   0.86902    1.000000    
    371 O     c    0.042950 *  0.999393 *  0.319674 *   0.86902    1.000000    
    372 O     c    0.045514 *  0.809340 *  0.474215 *   0.86902    1.000000    
    373 O     c    0.055172 *  0.917927 *  0.415328 *   0.86902    1.000000    
    374 O     c    0.043866 *  0.407951 *  0.412236 *   0.86902    1.000000    
    375 O     c    0.043645 *  0.888256 *  0.324930 *   0.86902    1.000000    
    376 O     c    0.106771 *  0.888114 *  0.159742 *   0.86902    1.000000    
    377 O     c    0.055867 *  0.292582 *  0.424551 *   0.86902    1.000000    
    378 O     c    0.000475 *  0.450834 *  0.423794 *   0.86902    1.000000    
    379 O     c    0.000475 *  0.846975 *  0.441859 *   0.86902    1.000000    
    380 O     c    0.000475 *  0.898746 *  0.252696 *   0.86902    1.000000    
    381 O     c    0.000475 *  0.364363 *  0.409811 *   0.86902    1.000000    
    382 O     c    0.000475 *  0.293643 *  0.251802 *   0.86902    1.000000    
    383 O     c    0.000475 *  0.986386 *  0.247367 *   0.86902    1.000000    
    384 O     c    0.000475 *  0.290743 *  0.462567 *   0.86902    1.000000    
    385 Si    c    0.360146 *  0.000212 *  0.628722 *   4.00000    1.000000    
    386 Si    c    0.272429 *  0.941729 *  0.570897 *   4.00000    1.000000    
    387 Si    c    0.273185 *  0.846192 *  0.461817 *   4.00000    1.000000    
    388 Si    c    0.751423 *  0.811859 *  0.625503 *   4.00000    1.000000    
    389 Si    c    0.272805 *  0.871627 *  0.575932 *   4.00000    1.000000    
    390 Si    c    0.808752 *  0.786876 *  0.682607 *   4.00000    1.000000    
    391 Si    c    0.305717 *  0.094532 *  0.693940 *   4.00000    1.000000    
    392 Si    c    0.344808 *  0.942144 *  0.567334 *   4.00000    1.000000    
    393 Si    c    0.345346 *  0.872571 *  0.574836 *   4.00000    1.000000    
    394 Si    c    0.363000 *  0.813861 *  0.629719 *   4.00000    1.000000    
    395 Si    c    0.304298 *  0.021198 *  0.698036 *   4.00000    1.000000    
    396 Si    c    0.305618 *  0.787261 *  0.692509 *   4.00000    1.000000    
    397 Si    c    0.345107 *  0.845432 *  0.462281 *   4.00000    1.000000    
    398 Si    c    0.406613 *  0.786361 *  0.710647 *   4.00000    1.000000    
    399 Si    c    0.879068 *  0.786490 *  0.674300 *   4.00000    1.000000    
    400 Si    c    0.272396 *  0.785567 *  0.517939 *   4.00000    1.000000    
    401 Si    c    0.965696 *  0.786856 *  0.727593 *   4.00000    1.000000    
    402 Si    c    0.344301 *  0.785615 *  0.521573 *   4.00000    1.000000    
    403 Si    c    0.750604 *  0.001037 *  0.874726 *   4.00000    1.000000    
    404 Si    c    0.862678 *  0.113111 *  0.874726 *   4.00000    1.000000    
    405 Si    c    0.564056 *  0.814489 *  0.874726 *   4.00000    1.000000    
    406 O     c    0.311104 *  0.750908 *  0.682826 *   0.86902    1.000000    
    407 O     c    0.254707 *  0.965065 *  0.610177 *   0.86902    1.000000    
    408 O     c    0.363465 *  0.966136 *  0.603837 *   0.86902    1.000000    
    409 O     c    0.786061 *  0.807981 *  0.647431 *   0.86902    1.000000    
    410 O     c    0.261500 *  0.946459 *  0.510021 *   0.86902    1.000000    
    411 O     c    0.308641 *  0.948905 *  0.574549 *   0.86902    1.000000    
    412 O     c    0.265427 *  0.809677 *  0.469788 *   0.86902    1.000000    
    413 O     c    0.331193 *  0.002155 *  0.668846 *   0.86902    1.000000    
    414 O     c    0.264512 *  0.906966 *  0.590525 *   0.86902    1.000000    
    415 O     c    0.309160 *  0.865077 *  0.581053 *   0.86902    1.000000    
    416 O     c    0.354258 *  0.945911 *  0.505595 *   0.86902    1.000000    
    417 O     c    0.255370 *  0.848501 *  0.616547 *   0.86902    1.000000    
    418 O     c    0.333704 *  0.111938 *  0.664877 *   0.86902    1.000000    
    419 O     c    0.355465 *  0.865246 *  0.513975 *   0.86902    1.000000    
    420 O     c    0.363224 *  0.850415 *  0.616286 *   0.86902    1.000000    
    421 O     c    0.310369 *  0.057589 *  0.688035 *   0.86902    1.000000    
    422 O     c    0.900853 *  0.808946 *  0.639074 *   0.86902    1.000000    
    423 O     c    0.262763 *  0.864933 *  0.514767 *   0.86902    1.000000    
    424 O     c    0.353437 *  0.907929 *  0.588265 *   0.86902    1.000000    
    425 O     c    0.805035 *  0.795687 *  0.744566 *   0.86902    1.000000    
    426 O     c    0.270917 *  0.011282 *  0.675758 *   0.86902    1.000000    
    427 O     c    0.309199 *  0.851729 *  0.450613 *   0.86902    1.000000    
    428 O     c    0.392157 *  0.005544 *  0.660491 *   0.86902    1.000000    
    429 O     c    0.355251 *  0.023943 *  0.580169 *   0.86902    1.000000    
    430 O     c    0.885062 *  0.791913 *  0.737179 *   0.86902    1.000000    
    431 O     c    0.352400 *  0.809105 *  0.472965 *   0.86902    1.000000    
    432 O     c    0.394573 *  0.807261 *  0.661809 *   0.86902    1.000000    
    433 O     c    0.272938 *  0.797623 *  0.668568 *   0.86902    1.000000    
    434 O     c    0.308071 *  0.789093 *  0.536272 *   0.86902    1.000000    
    435 O     c    0.251989 *  0.793383 *  0.569674 *   0.86902    1.000000    
    436 O     c    0.442042 *  0.795947 *  0.724215 *   0.86902    1.000000    
    437 O     c    0.333455 *  0.805605 *  0.665328 *   0.86902    1.000000    
    438 O     c    0.843432 *  0.794298 *  0.662236 *   0.86902    1.000000    
    439 O     c    0.363127 *  0.794077 *  0.574930 *   0.86902    1.000000    
    440 O     c    0.363269 *  0.857204 *  0.409742 *   0.86902    1.000000    
    441 O     c    0.958800 *  0.806300 *  0.674551 *   0.86902    1.000000    
    442 O     c    0.800549 *  0.750908 *  0.673794 *   0.86902    1.000000    
    443 O     c    0.404407 *  0.750908 *  0.691859 *   0.86902    1.000000    
    444 O     c    0.352637 *  0.750908 *  0.502696 *   0.86902    1.000000    
    445 O     c    0.887019 *  0.750908 *  0.659811 *   0.86902    1.000000    
    446 O     c    0.957739 *  0.750908 *  0.501802 *   0.86902    1.000000    
    447 O     c    0.264996 *  0.750908 *  0.497367 *   0.86902    1.000000    
    448 O     c    0.960639 *  0.750908 *  0.712567 *   0.86902    1.000000    
    449 Si    c    0.140804 *  0.001604 *  0.128722 *   4.00000    1.000000    
    450 Si    c    0.228521 *  0.060087 *  0.070897 *   4.00000    1.000000    
    451 Si    c    0.227764 *  0.155623 *  0.961817 *   4.00000    1.000000    
    452 Si    c    0.749527 *  0.189956 *  0.125503 *   4.00000    1.000000    
    453 Si    c    0.228145 *  0.130189 *  0.075932 *   4.00000    1.000000    
    454 Si    c    0.692198 *  0.214939 *  0.182607 *   4.00000    1.000000    
    455 Si    c    0.195232 *  0.907284 *  0.193940 *   4.00000    1.000000    
    456 Si    c    0.156141 *  0.059671 *  0.067334 *   4.00000    1.000000    
    457 Si    c    0.155603 *  0.129245 *  0.074836 *   4.00000    1.000000    
    458 Si    c    0.137950 *  0.187954 *  0.129719 *   4.00000    1.000000    
    459 Si    c    0.196652 *  0.980618 *  0.198036 *   4.00000    1.000000    
    460 Si    c    0.195332 *  0.214555 *  0.192509 *   4.00000    1.000000    
    461 Si    c    0.155843 *  0.156383 *  0.962281 *   4.00000    1.000000    
    462 Si    c    0.094337 *  0.215454 *  0.210647 *   4.00000    1.000000    
    463 Si    c    0.621882 *  0.215325 *  0.174300 *   4.00000    1.000000    
    464 Si    c    0.228553 *  0.216248 *  0.017939 *   4.00000    1.000000    
    465 Si    c    0.535254 *  0.214959 *  0.227593 *   4.00000    1.000000    
    466 Si    c    0.156649 *  0.216200 *  0.021573 *   4.00000    1.000000    
    467 Si    c    0.750345 *  0.000778 *  0.374726 *   4.00000    1.000000    
    468 Si    c    0.638272 *  0.888705 *  0.374726 *   4.00000    1.000000    
    469 Si    c    0.936893 *  0.187326 *  0.374726 *   4.00000    1.000000    
    470 O     c    0.189845 *  0.250908 *  0.182826 *   0.86902    1.000000    
    471 O     c    0.246243 *  0.036751 *  0.110177 *   0.86902    1.000000    
    472 O     c    0.137485 *  0.035679 *  0.103837 *   0.86902    1.000000    
    473 O     c    0.714888 *  0.193834 *  0.147431 *   0.86902    1.000000    
    474 O     c    0.239450 *  0.055356 *  0.010021 *   0.86902    1.000000    
    475 O     c    0.192309 *  0.052911 *  0.074549 *   0.86902    1.000000    
    476 O     c    0.235523 *  0.192139 *  0.969788 *   0.86902    1.000000    
    477 O     c    0.169757 *  0.999660 *  0.168846 *   0.86902    1.000000    
    478 O     c    0.236438 *  0.094850 *  0.090525 *   0.86902    1.000000    
    479 O     c    0.191789 *  0.136738 *  0.081053 *   0.86902    1.000000    
    480 O     c    0.146692 *  0.055904 *  0.005595 *   0.86902    1.000000    
    481 O     c    0.245580 *  0.153314 *  0.116547 *   0.86902    1.000000    
    482 O     c    0.167246 *  0.889877 *  0.164877 *   0.86902    1.000000    
    483 O     c    0.145485 *  0.136570 *  0.013976 *   0.86902    1.000000    
    484 O     c    0.137726 *  0.151401 *  0.116286 *   0.86902    1.000000    
    485 O     c    0.190581 *  0.944227 *  0.188035 *   0.86902    1.000000    
    486 O     c    0.600096 *  0.192869 *  0.139074 *   0.86902    1.000000    
    487 O     c    0.238186 *  0.136883 *  0.014767 *   0.86902    1.000000    
    488 O     c    0.147513 *  0.093886 *  0.088265 *   0.86902    1.000000    
    489 O     c    0.695914 *  0.206128 *  0.244566 *   0.86902    1.000000    
    490 O     c    0.230032 *  0.990533 *  0.175758 *   0.86902    1.000000    
    491 O     c    0.191750 *  0.150087 *  0.950613 *   0.86902    1.000000    
    492 O     c    0.108793 *  0.996271 *  0.160491 *   0.86902    1.000000    
    493 O     c    0.145698 *  0.977873 *  0.080169 *   0.86902    1.000000    
    494 O     c    0.615888 *  0.209902 *  0.237179 *   0.86902    1.000000    
    495 O     c    0.148549 *  0.192710 *  0.972965 *   0.86902    1.000000    
    496 O     c    0.106376 *  0.194554 *  0.161809 *   0.86902    1.000000    
    497 O     c    0.228012 *  0.204192 *  0.168568 *   0.86902    1.000000    
    498 O     c    0.192878 *  0.212722 *  0.036272 *   0.86902    1.000000    
    499 O     c    0.248960 *  0.208433 *  0.069674 *   0.86902    1.000000    
    500 O     c    0.058907 *  0.205868 *  0.224215 *   0.86902    1.000000    
    501 O     c    0.167494 *  0.196210 *  0.165328 *   0.86902    1.000000    
    502 O     c    0.657518 *  0.207517 *  0.162236 *   0.86902    1.000000    
    503 O     c    0.137823 *  0.207738 *  0.074930 *   0.86902    1.000000    
    504 O     c    0.137681 *  0.144612 *  0.909742 *   0.86902    1.000000    
    505 O     c    0.542150 *  0.195515 *  0.174551 *   0.86902    1.000000    
    506 O     c    0.700401 *  0.250908 *  0.173794 *   0.86902    1.000000    
    507 O     c    0.096542 *  0.250908 *  0.191859 *   0.86902    1.000000    
    508 O     c    0.148313 *  0.250908 *  0.002696 *   0.86902    1.000000    
    509 O     c    0.613930 *  0.250908 *  0.159811 *   0.86902    1.000000    
    510 O     c    0.543210 *  0.250908 *  0.001802 *   0.86902    1.000000    
    511 O     c    0.235953 *  0.250908 *  0.997367 *   0.86902    1.000000    
    512 O     c    0.540311 *  0.250908 *  0.212567 *   0.86902    1.000000    
    513 Si    c    0.751171 *  0.110578 *  0.620729 *   4.00000    1.000000    
    514 Si    c    0.809654 *  0.022862 *  0.678554 *   4.00000    1.000000    
    515 Si    c    0.905190 *  0.023618 *  0.787634 *   4.00000    1.000000    
    516 Si    c    0.939523 *  0.501856 *  0.623948 *   4.00000    1.000000    
    517 Si    c    0.879756 *  0.023238 *  0.673519 *   4.00000    1.000000    
    518 Si    c    0.964506 *  0.559185 *  0.566844 *   4.00000    1.000000    
    519 Si    c    0.656851 *  0.056150 *  0.555512 *   4.00000    1.000000    
    520 Si    c    0.809238 *  0.095241 *  0.682118 *   4.00000    1.000000    
    521 Si    c    0.878812 *  0.095779 *  0.674615 *   4.00000    1.000000    
    522 Si    c    0.937521 *  0.113433 *  0.619732 *   4.00000    1.000000    
    523 Si    c    0.730185 *  0.054731 *  0.551415 *   4.00000    1.000000    
    524 Si    c    0.964122 *  0.056051 *  0.556942 *   4.00000    1.000000    
    525 Si    c    0.905951 *  0.095539 *  0.787171 *   4.00000    1.000000    
    526 Si    c    0.965022 *  0.157045 *  0.538804 *   4.00000    1.000000    
    527 Si    c    0.964892 *  0.629501 *  0.575151 *   4.00000    1.000000    
    528 Si    c    0.965815 *  0.022829 *  0.731512 *   4.00000    1.000000    
    529 Si    c    0.964527 *  0.716129 *  0.521859 *   4.00000    1.000000    
    530 Si    c    0.965767 *  0.094734 *  0.727878 *   4.00000    1.000000    
    531 Si    c    0.750345 *  0.501037 *  0.374726 *   4.00000    1.000000    
    532 Si    c    0.638272 *  0.613111 *  0.374726 *   4.00000    1.000000    
    533 Si    c    0.936893 *  0.314489 *  0.374726 *   4.00000    1.000000    
    534 O     c    0.786318 *  0.005140 *  0.639274 *   0.86902    1.000000    
    535 O     c    0.785246 *  0.113898 *  0.645615 *   0.86902    1.000000    
    536 O     c    0.943401 *  0.536494 *  0.602021 *   0.86902    1.000000    
    537 O     c    0.804923 *  0.011933 *  0.739430 *   0.86902    1.000000    
    538 O     c    0.802478 *  0.059073 *  0.674902 *   0.86902    1.000000    
    539 O     c    0.941706 *  0.015860 *  0.779663 *   0.86902    1.000000    
    540 O     c    0.749227 *  0.081626 *  0.580605 *   0.86902    1.000000    
    541 O     c    0.844417 *  0.014945 *  0.658927 *   0.86902    1.000000    
    542 O     c    0.886306 *  0.059593 *  0.668398 *   0.86902    1.000000    
    543 O     c    0.805471 *  0.104691 *  0.743857 *   0.86902    1.000000    
    544 O     c    0.902881 *  0.005803 *  0.632905 *   0.86902    1.000000    
    545 O     c    0.639445 *  0.084137 *  0.584575 *   0.86902    1.000000    
    546 O     c    0.886137 *  0.105898 *  0.735476 *   0.86902    1.000000    
    547 O     c    0.900968 *  0.113657 *  0.633166 *   0.86902    1.000000    
    548 O     c    0.693794 *  0.060802 *  0.561416 *   0.86902    1.000000    
    549 O     c    0.942436 *  0.651286 *  0.610377 *   0.86902    1.000000    
    550 O     c    0.886450 *  0.013196 *  0.734684 *   0.86902    1.000000    
    551 O     c    0.843453 *  0.103869 *  0.661187 *   0.86902    1.000000    
    552 O     c    0.955696 *  0.555468 *  0.504885 *   0.86902    1.000000    
    553 O     c    0.740100 *  0.021350 *  0.573693 *   0.86902    1.000000    
    554 O     c    0.899654 *  0.059632 *  0.798839 *   0.86902    1.000000    
    555 O     c    0.745838 *  0.142589 *  0.588961 *   0.86902    1.000000    
    556 O     c    0.727440 *  0.105684 *  0.669283 *   0.86902    1.000000    
    557 O     c    0.959469 *  0.635495 *  0.512272 *   0.86902    1.000000    
    558 O     c    0.942277 *  0.102833 *  0.776486 *   0.86902    1.000000    
    559 O     c    0.944121 *  0.145006 *  0.587642 *   0.86902    1.000000    
    560 O     c    0.953759 *  0.023371 *  0.580883 *   0.86902    1.000000    
    561 O     c    0.962289 *  0.058504 *  0.713179 *   0.86902    1.000000    
    562 O     c    0.958000 *  0.002422 *  0.679778 *   0.86902    1.000000    
    563 O     c    0.955435 *  0.192475 *  0.525237 *   0.86902    1.000000    
    564 O     c    0.945777 *  0.083888 *  0.584123 *   0.86902    1.000000    
    565 O     c    0.957084 *  0.593864 *  0.587216 *   0.86902    1.000000    
    566 O     c    0.957305 *  0.113559 *  0.674521 *   0.86902    1.000000    
    567 O     c    0.894179 *  0.113702 *  0.839709 *   0.86902    1.000000    
    568 O     c    0.945083 *  0.709233 *  0.574900 *   0.86902    1.000000    
    569 Si    c    0.749779 *  0.110578 *  0.878722 *   4.00000    1.000000    
    570 Si    c    0.691296 *  0.022862 *  0.820897 *   4.00000    1.000000    
    571 Si    c    0.595759 *  0.023618 *  0.711817 *   4.00000    1.000000    
    572 Si    c    0.561426 *  0.501856 *  0.875503 *   4.00000    1.000000    
    573 Si    c    0.621194 *  0.023238 *  0.825932 *   4.00000    1.000000    
    574 Si    c    0.536444 *  0.559185 *  0.932607 *   4.00000    1.000000    
    575 Si    c    0.844099 *  0.056150 *  0.943940 *   4.00000    1.000000    
    576 Si    c    0.691711 *  0.095241 *  0.817334 *   4.00000    1.000000    
    577 Si    c    0.622138 *  0.095779 *  0.824836 *   4.00000    1.000000    
    578 Si    c    0.563428 *  0.113433 *  0.879719 *   4.00000    1.000000    
    579 Si    c    0.770765 *  0.054731 *  0.948036 *   4.00000    1.000000    
    580 Si    c    0.536828 *  0.056051 *  0.942509 *   4.00000    1.000000    
    581 Si    c    0.594999 *  0.095539 *  0.712281 *   4.00000    1.000000    
    582 Si    c    0.535928 *  0.157045 *  0.960647 *   4.00000    1.000000    
    583 Si    c    0.536057 *  0.629501 *  0.924300 *   4.00000    1.000000    
    584 Si    c    0.535135 *  0.022829 *  0.767939 *   4.00000    1.000000    
    585 Si    c    0.536423 *  0.716129 *  0.977593 *   4.00000    1.000000    
    586 Si    c    0.535183 *  0.094734 *  0.771573 *   4.00000    1.000000    
    587 Si    c    0.750604 *  0.501037 *  0.124726 *   4.00000    1.000000    
    588 Si    c    0.862678 *  0.613111 *  0.124726 *   4.00000    1.000000    
    589 Si    c    0.564056 *  0.314489 *  0.124726 *   4.00000    1.000000    
    590 O     c    0.714632 *  0.005140 *  0.860177 *   0.86902    1.000000    
    591 O     c    0.715704 *  0.113898 *  0.853837 *   0.86902    1.000000    
    592 O     c    0.557548 *  0.536494 *  0.897431 *   0.86902    1.000000    
    593 O     c    0.696026 *  0.011933 *  0.760021 *   0.86902    1.000000    
    594 O     c    0.698472 *  0.059073 *  0.824549 *   0.86902    1.000000    
    595 O     c    0.559244 *  0.015860 *  0.719788 *   0.86902    1.000000    
    596 O     c    0.751722 *  0.081626 *  0.918846 *   0.86902    1.000000    
    597 O     c    0.656533 *  0.014945 *  0.840525 *   0.86902    1.000000    
    598 O     c    0.614644 *  0.059593 *  0.831053 *   0.86902    1.000000    
    599 O     c    0.695478 *  0.104691 *  0.755595 *   0.86902    1.000000    
    600 O     c    0.598068 *  0.005803 *  0.866547 *   0.86902    1.000000    
    601 O     c    0.861505 *  0.084137 *  0.914877 *   0.86902    1.000000    
    602 O     c    0.614813 *  0.105898 *  0.763975 *   0.86902    1.000000    
    603 O     c    0.599982 *  0.113657 *  0.866286 *   0.86902    1.000000    
    604 O     c    0.807156 *  0.060802 *  0.938035 *   0.86902    1.000000    
    605 O     c    0.558513 *  0.651286 *  0.889074 *   0.86902    1.000000    
    606 O     c    0.614500 *  0.013196 *  0.764767 *   0.86902    1.000000    
    607 O     c    0.657496 *  0.103869 *  0.838265 *   0.86902    1.000000    
    608 O     c    0.545254 *  0.555468 *  0.994566 *   0.86902    1.000000    
    609 O     c    0.760849 *  0.021350 *  0.925758 *   0.86902    1.000000    
    610 O     c    0.601296 *  0.059632 *  0.700613 *   0.86902    1.000000    
    611 O     c    0.755111 *  0.142589 *  0.910491 *   0.86902    1.000000    
    612 O     c    0.773510 *  0.105684 *  0.830169 *   0.86902    1.000000    
    613 O     c    0.541480 *  0.635495 *  0.987179 *   0.86902    1.000000    
    614 O     c    0.558672 *  0.102833 *  0.722965 *   0.86902    1.000000    
    615 O     c    0.556829 *  0.145006 *  0.911809 *   0.86902    1.000000    
    616 O     c    0.547190 *  0.023371 *  0.918568 *   0.86902    1.000000    
    617 O     c    0.538660 *  0.058504 *  0.786272 *   0.86902    1.000000    
    618 O     c    0.542950 *  0.002422 *  0.819674 *   0.86902    1.000000    
    619 O     c    0.545514 *  0.192475 *  0.974215 *   0.86902    1.000000    
    620 O     c    0.555172 *  0.083888 *  0.915328 *   0.86902    1.000000    
    621 O     c    0.543866 *  0.593864 *  0.912236 *   0.86902    1.000000    
    622 O     c    0.543645 *  0.113559 *  0.824930 *   0.86902    1.000000    
    623 O     c    0.606771 *  0.113702 *  0.659742 *   0.86902    1.000000    
    624 O     c    0.555867 *  0.709233 *  0.924551 *   0.86902    1.000000    
    625 Si    c    0.860146 *  0.001604 *  0.128722 *   4.00000    1.000000    
    626 Si    c    0.772429 *  0.060087 *  0.070897 *   4.00000    1.000000    
    627 Si    c    0.773186 *  0.155623 *  0.961817 *   4.00000    1.000000    
    628 Si    c    0.251423 *  0.189956 *  0.125503 *   4.00000    1.000000    
    629 Si    c    0.772805 *  0.130189 *  0.075932 *   4.00000    1.000000    
    630 Si    c    0.308752 *  0.214939 *  0.182607 *   4.00000    1.000000    
    631 Si    c    0.805717 *  0.907284 *  0.193940 *   4.00000    1.000000    
    632 Si    c    0.844809 *  0.059671 *  0.067334 *   4.00000    1.000000    
    633 Si    c    0.845346 *  0.129245 *  0.074836 *   4.00000    1.000000    
    634 Si    c    0.863000 *  0.187954 *  0.129719 *   4.00000    1.000000    
    635 Si    c    0.804298 *  0.980618 *  0.198036 *   4.00000    1.000000    
    636 Si    c    0.805618 *  0.214555 *  0.192509 *   4.00000    1.000000    
    637 Si    c    0.845107 *  0.156383 *  0.962281 *   4.00000    1.000000    
    638 Si    c    0.906613 *  0.215454 *  0.210647 *   4.00000    1.000000    
    639 Si    c    0.379068 *  0.215325 *  0.174300 *   4.00000    1.000000    
    640 Si    c    0.772396 *  0.216248 *  0.017939 *   4.00000    1.000000    
    641 Si    c    0.465696 *  0.214959 *  0.227593 *   4.00000    1.000000    
    642 Si    c    0.844301 *  0.216200 *  0.021573 *   4.00000    1.000000    
    643 Si    c    0.250604 *  0.000778 *  0.374726 *   4.00000    1.000000    
    644 Si    c    0.362678 *  0.888705 *  0.374726 *   4.00000    1.000000    
    645 Si    c    0.064056 *  0.187326 *  0.374726 *   4.00000    1.000000    
    646 O     c    0.811104 *  0.250908 *  0.182826 *   0.86902    1.000000    
    647 O     c    0.754707 *  0.036751 *  0.110177 *   0.86902    1.000000    
    648 O     c    0.863465 *  0.035679 *  0.103837 *   0.86902    1.000000    
    649 O     c    0.286061 *  0.193834 *  0.147431 *   0.86902    1.000000    
    650 O     c    0.761500 *  0.055356 *  0.010021 *   0.86902    1.000000    
    651 O     c    0.808641 *  0.052911 *  0.074549 *   0.86902    1.000000    
    652 O     c    0.765427 *  0.192139 *  0.969788 *   0.86902    1.000000    
    653 O     c    0.831193 *  0.999660 *  0.168846 *   0.86902    1.000000    
    654 O     c    0.764512 *  0.094850 *  0.090525 *   0.86902    1.000000    
    655 O     c    0.809160 *  0.136738 *  0.081053 *   0.86902    1.000000    
    656 O     c    0.854258 *  0.055904 *  0.005595 *   0.86902    1.000000    
    657 O     c    0.755370 *  0.153314 *  0.116546 *   0.86902    1.000000    
    658 O     c    0.833704 *  0.889877 *  0.164877 *   0.86902    1.000000    
    659 O     c    0.855465 *  0.136570 *  0.013976 *   0.86902    1.000000    
    660 O     c    0.863224 *  0.151401 *  0.116286 *   0.86902    1.000000    
    661 O     c    0.810369 *  0.944227 *  0.188035 *   0.86902    1.000000    
    662 O     c    0.400853 *  0.192869 *  0.139074 *   0.86902    1.000000    
    663 O     c    0.762763 *  0.136883 *  0.014767 *   0.86902    1.000000    
    664 O     c    0.853437 *  0.093886 *  0.088265 *   0.86902    1.000000    
    665 O     c    0.305035 *  0.206128 *  0.244566 *   0.86902    1.000000    
    666 O     c    0.770917 *  0.990533 *  0.175758 *   0.86902    1.000000    
    667 O     c    0.809199 *  0.150087 *  0.950613 *   0.86902    1.000000    
    668 O     c    0.892157 *  0.996271 *  0.160491 *   0.86902    1.000000    
    669 O     c    0.855251 *  0.977873 *  0.080169 *   0.86902    1.000000    
    670 O     c    0.385062 *  0.209902 *  0.237179 *   0.86902    1.000000    
    671 O     c    0.852400 *  0.192710 *  0.972965 *   0.86902    1.000000    
    672 O     c    0.894573 *  0.194554 *  0.161809 *   0.86902    1.000000    
    673 O     c    0.772938 *  0.204192 *  0.168568 *   0.86902    1.000000    
    674 O     c    0.808071 *  0.212722 *  0.036272 *   0.86902    1.000000    
    675 O     c    0.751989 *  0.208433 *  0.069674 *   0.86902    1.000000    
    676 O     c    0.942042 *  0.205868 *  0.224215 *   0.86902    1.000000    
    677 O     c    0.833455 *  0.196210 *  0.165328 *   0.86902    1.000000    
    678 O     c    0.343432 *  0.207517 *  0.162236 *   0.86902    1.000000    
    679 O     c    0.863127 *  0.207738 *  0.074930 *   0.86902    1.000000    
    680 O     c    0.863269 *  0.144612 *  0.909742 *   0.86902    1.000000    
    681 O     c    0.458800 *  0.195515 *  0.174551 *   0.86902    1.000000    
    682 O     c    0.300549 *  0.250908 *  0.173794 *   0.86902    1.000000    
    683 O     c    0.904407 *  0.250908 *  0.191859 *   0.86902    1.000000    
    684 O     c    0.852637 *  0.250908 *  0.002696 *   0.86902    1.000000    
    685 O     c    0.387019 *  0.250908 *  0.159811 *   0.86902    1.000000    
    686 O     c    0.457739 *  0.250908 *  0.001802 *   0.86902    1.000000    
    687 O     c    0.764996 *  0.250908 *  0.997367 *   0.86902    1.000000    
    688 O     c    0.460639 *  0.250908 *  0.212567 *   0.86902    1.000000    
    689 Si    c    0.640804 *  0.000212 *  0.628722 *   4.00000    1.000000    
    690 Si    c    0.728521 *  0.941729 *  0.570897 *   4.00000    1.000000    
    691 Si    c    0.727764 *  0.846192 *  0.461817 *   4.00000    1.000000    
    692 Si    c    0.249527 *  0.811859 *  0.625503 *   4.00000    1.000000    
    693 Si    c    0.728145 *  0.871627 *  0.575932 *   4.00000    1.000000    
    694 Si    c    0.192198 *  0.786876 *  0.682607 *   4.00000    1.000000    
    695 Si    c    0.695232 *  0.094532 *  0.693940 *   4.00000    1.000000    
    696 Si    c    0.656141 *  0.942144 *  0.567334 *   4.00000    1.000000    
    697 Si    c    0.655603 *  0.872571 *  0.574836 *   4.00000    1.000000    
    698 Si    c    0.637950 *  0.813861 *  0.629719 *   4.00000    1.000000    
    699 Si    c    0.696652 *  0.021198 *  0.698036 *   4.00000    1.000000    
    700 Si    c    0.695332 *  0.787261 *  0.692509 *   4.00000    1.000000    
    701 Si    c    0.655843 *  0.845432 *  0.462281 *   4.00000    1.000000    
    702 Si    c    0.594337 *  0.786361 *  0.710647 *   4.00000    1.000000    
    703 Si    c    0.121882 *  0.786490 *  0.674300 *   4.00000    1.000000    
    704 Si    c    0.728553 *  0.785567 *  0.517939 *   4.00000    1.000000    
    705 Si    c    0.035254 *  0.786856 *  0.727593 *   4.00000    1.000000    
    706 Si    c    0.656649 *  0.785615 *  0.521573 *   4.00000    1.000000    
    707 Si    c    0.250345 *  0.001037 *  0.874726 *   4.00000    1.000000    
    708 Si    c    0.138272 *  0.113111 *  0.874726 *   4.00000    1.000000    
    709 Si    c    0.436894 *  0.814489 *  0.874726 *   4.00000    1.000000    
    710 O     c    0.689845 *  0.750908 *  0.682826 *   0.86902    1.000000    
    711 O     c    0.746243 *  0.965065 *  0.610177 *   0.86902    1.000000    
    712 O     c    0.637485 *  0.966136 *  0.603837 *   0.86902    1.000000    
    713 O     c    0.214888 *  0.807981 *  0.647431 *   0.86902    1.000000    
    714 O     c    0.739450 *  0.946459 *  0.510021 *   0.86902    1.000000    
    715 O     c    0.692309 *  0.948905 *  0.574549 *   0.86902    1.000000    
    716 O     c    0.735522 *  0.809677 *  0.469788 *   0.86902    1.000000    
    717 O     c    0.669757 *  0.002155 *  0.668846 *   0.86902    1.000000    
    718 O     c    0.736438 *  0.906966 *  0.590525 *   0.86902    1.000000    
    719 O     c    0.691789 *  0.865077 *  0.581053 *   0.86902    1.000000    
    720 O     c    0.646692 *  0.945911 *  0.505595 *   0.86902    1.000000    
    721 O     c    0.745580 *  0.848501 *  0.616547 *   0.86902    1.000000    
    722 O     c    0.667246 *  0.111938 *  0.664877 *   0.86902    1.000000    
    723 O     c    0.645485 *  0.865246 *  0.513975 *   0.86902    1.000000    
    724 O     c    0.637726 *  0.850415 *  0.616286 *   0.86902    1.000000    
    725 O     c    0.690581 *  0.057589 *  0.688035 *   0.86902    1.000000    
    726 O     c    0.100096 *  0.808946 *  0.639074 *   0.86902    1.000000    
    727 O     c    0.738186 *  0.864933 *  0.514767 *   0.86902    1.000000    
    728 O     c    0.647513 *  0.907929 *  0.588265 *   0.86902    1.000000    
    729 O     c    0.195914 *  0.795687 *  0.744566 *   0.86902    1.000000    
    730 O     c    0.730032 *  0.011282 *  0.675758 *   0.86902    1.000000    
    731 O     c    0.691750 *  0.851729 *  0.450613 *   0.86902    1.000000    
    732 O     c    0.608793 *  0.005544 *  0.660491 *   0.86902    1.000000    
    733 O     c    0.645698 *  0.023943 *  0.580169 *   0.86902    1.000000    
    734 O     c    0.115888 *  0.791913 *  0.737179 *   0.86902    1.000000    
    735 O     c    0.648549 *  0.809105 *  0.472965 *   0.86902    1.000000    
    736 O     c    0.606376 *  0.807261 *  0.661809 *   0.86902    1.000000    
    737 O     c    0.728012 *  0.797623 *  0.668568 *   0.86902    1.000000    
    738 O     c    0.692878 *  0.789093 *  0.536272 *   0.86902    1.000000    
    739 O     c    0.748960 *  0.793383 *  0.569674 *   0.86902    1.000000    
    740 O     c    0.558907 *  0.795947 *  0.724215 *   0.86902    1.000000    
    741 O     c    0.667494 *  0.805605 *  0.665328 *   0.86902    1.000000    
    742 O     c    0.157518 *  0.794298 *  0.662236 *   0.86902    1.000000    
    743 O     c    0.637823 *  0.794077 *  0.574930 *   0.86902    1.000000    
    744 O     c    0.637681 *  0.857204 *  0.409742 *   0.86902    1.000000    
    745 O     c    0.042150 *  0.806300 *  0.674551 *   0.86902    1.000000    
    746 O     c    0.200401 *  0.750908 *  0.673794 *   0.86902    1.000000    
    747 O     c    0.596542 *  0.750908 *  0.691859 *   0.86902    1.000000    
    748 O     c    0.648313 *  0.750908 *  0.502696 *   0.86902    1.000000    
    749 O     c    0.113930 *  0.750908 *  0.659811 *   0.86902    1.000000    
    750 O     c    0.043210 *  0.750908 *  0.501802 *   0.86902    1.000000    
    751 O     c    0.735953 *  0.750908 *  0.497367 *   0.86902    1.000000    
    752 O     c    0.040311 *  0.750908 *  0.712567 *   0.86902    1.000000    
    753 Si    c    0.749779 *  0.891237 *  0.120730 *   4.00000    1.000000    
    754 Si    c    0.691296 *  0.978953 *  0.178554 *   4.00000    1.000000    
    755 Si    c    0.595759 *  0.978197 *  0.287634 *   4.00000    1.000000    
    756 Si    c    0.561426 *  0.499960 *  0.123948 *   4.00000    1.000000    
    757 Si    c    0.621194 *  0.978577 *  0.173519 *   4.00000    1.000000    
    758 Si    c    0.536444 *  0.442631 *  0.066844 *   4.00000    1.000000    
    759 Si    c    0.844099 *  0.945665 *  0.055512 *   4.00000    1.000000    
    760 Si    c    0.691711 *  0.906574 *  0.182118 *   4.00000    1.000000    
    761 Si    c    0.622138 *  0.906036 *  0.174615 *   4.00000    1.000000    
    762 Si    c    0.563428 *  0.888383 *  0.119732 *   4.00000    1.000000    
    763 Si    c    0.770765 *  0.947084 *  0.051415 *   4.00000    1.000000    
    764 Si    c    0.536828 *  0.945765 *  0.056942 *   4.00000    1.000000    
    765 Si    c    0.594999 *  0.906276 *  0.287170 *   4.00000    1.000000    
    766 Si    c    0.535928 *  0.844770 *  0.038804 *   4.00000    1.000000    
    767 Si    c    0.536057 *  0.372315 *  0.075151 *   4.00000    1.000000    
    768 Si    c    0.535135 *  0.978986 *  0.231512 *   4.00000    1.000000    
    769 Si    c    0.536423 *  0.285687 *  0.021859 *   4.00000    1.000000    
    770 Si    c    0.535183 *  0.907082 *  0.227878 *   4.00000    1.000000    
    771 Si    c    0.750604 *  0.500778 *  0.874726 *   4.00000    1.000000    
    772 Si    c    0.862678 *  0.388704 *  0.874726 *   4.00000    1.000000    
    773 Si    c    0.564056 *  0.687326 *  0.874726 *   4.00000    1.000000    
    774 O     c    0.714632 *  0.996676 *  0.139274 *   0.86902    1.000000    
    775 O     c    0.715704 *  0.887918 *  0.145615 *   0.86902    1.000000    
    776 O     c    0.557548 *  0.465321 *  0.102021 *   0.86902    1.000000    
    777 O     c    0.696026 *  0.989883 *  0.239430 *   0.86902    1.000000    
    778 O     c    0.698472 *  0.942742 *  0.174902 *   0.86902    1.000000    
    779 O     c    0.559244 *  0.985955 *  0.279663 *   0.86902    1.000000    
    780 O     c    0.751722 *  0.920190 *  0.080605 *   0.86902    1.000000    
    781 O     c    0.656533 *  0.986870 *  0.158927 *   0.86902    1.000000    
    782 O     c    0.614644 *  0.942222 *  0.168398 *   0.86902    1.000000    
    783 O     c    0.695478 *  0.897125 *  0.243857 *   0.86902    1.000000    
    784 O     c    0.598068 *  0.996013 *  0.132905 *   0.86902    1.000000    
    785 O     c    0.861505 *  0.917679 *  0.084575 *   0.86902    1.000000    
    786 O     c    0.614813 *  0.895917 *  0.235476 *   0.86902    1.000000    
    787 O     c    0.599982 *  0.888159 *  0.133166 *   0.86902    1.000000    
    788 O     c    0.807156 *  0.941014 *  0.061416 *   0.86902    1.000000    
    789 O     c    0.558513 *  0.350529 *  0.110377 *   0.86902    1.000000    
    790 O     c    0.614500 *  0.988619 *  0.234684 *   0.86902    1.000000    
    791 O     c    0.657496 *  0.897946 *  0.161187 *   0.86902    1.000000    
    792 O     c    0.545254 *  0.446347 *  0.004885 *   0.86902    1.000000    
    793 O     c    0.760849 *  0.980465 *  0.073693 *   0.86902    1.000000    
    794 O     c    0.601296 *  0.942183 *  0.298839 *   0.86902    1.000000    
    795 O     c    0.755111 *  0.859226 *  0.088961 *   0.86902    1.000000    
    796 O     c    0.773510 *  0.896131 *  0.169283 *   0.86902    1.000000    
    797 O     c    0.541480 *  0.366321 *  0.012272 *   0.86902    1.000000    
    798 O     c    0.558672 *  0.898982 *  0.276486 *   0.86902    1.000000    
    799 O     c    0.556829 *  0.856809 *  0.087642 *   0.86902    1.000000    
    800 O     c    0.547190 *  0.978445 *  0.080883 *   0.86902    1.000000    
    801 O     c    0.538660 *  0.943311 *  0.213179 *   0.86902    1.000000    
    802 O     c    0.542950 *  0.999393 *  0.179778 *   0.86902    1.000000    
    803 O     c    0.545514 *  0.809340 *  0.025237 *   0.86902    1.000000    
    804 O     c    0.555172 *  0.917927 *  0.084123 *   0.86902    1.000000    
    805 O     c    0.543866 *  0.407951 *  0.087216 *   0.86902    1.000000    
    806 O     c    0.543645 *  0.888256 *  0.174521 *   0.86902    1.000000    
    807 O     c    0.606771 *  0.888114 *  0.339709 *   0.86902    1.000000    
    808 O     c    0.555867 *  0.292582 *  0.074900 *   0.86902    1.000000    
    809 Si    c    0.751171 *  0.891237 *  0.378722 *   4.00000    1.000000    
    810 Si    c    0.809654 *  0.978953 *  0.320897 *   4.00000    1.000000    
    811 Si    c    0.905190 *  0.978197 *  0.211817 *   4.00000    1.000000    
    812 Si    c    0.939523 *  0.499960 *  0.375503 *   4.00000    1.000000    
    813 Si    c    0.879756 *  0.978577 *  0.325932 *   4.00000    1.000000    
    814 Si    c    0.964506 *  0.442631 *  0.432607 *   4.00000    1.000000    
    815 Si    c    0.656851 *  0.945665 *  0.443940 *   4.00000    1.000000    
    816 Si    c    0.809238 *  0.906574 *  0.317334 *   4.00000    1.000000    
    817 Si    c    0.878812 *  0.906036 *  0.324836 *   4.00000    1.000000    
    818 Si    c    0.937521 *  0.888383 *  0.379719 *   4.00000    1.000000    
    819 Si    c    0.730185 *  0.947084 *  0.448036 *   4.00000    1.000000    
    820 Si    c    0.964122 *  0.945765 *  0.442509 *   4.00000    1.000000    
    821 Si    c    0.905951 *  0.906276 *  0.212281 *   4.00000    1.000000    
    822 Si    c    0.965022 *  0.844770 *  0.460647 *   4.00000    1.000000    
    823 Si    c    0.964892 *  0.372315 *  0.424300 *   4.00000    1.000000    
    824 Si    c    0.965815 *  0.978986 *  0.267939 *   4.00000    1.000000    
    825 Si    c    0.964527 *  0.285687 *  0.477593 *   4.00000    1.000000    
    826 Si    c    0.965767 *  0.907082 *  0.271573 *   4.00000    1.000000    
    827 Si    c    0.750345 *  0.500778 *  0.624726 *   4.00000    1.000000    
    828 Si    c    0.638272 *  0.388704 *  0.624726 *   4.00000    1.000000    
    829 Si    c    0.936893 *  0.687326 *  0.624726 *   4.00000    1.000000    
    830 O     c    0.786318 *  0.996676 *  0.360177 *   0.86902    1.000000    
    831 O     c    0.785246 *  0.887918 *  0.353837 *   0.86902    1.000000    
    832 O     c    0.943401 *  0.465321 *  0.397431 *   0.86902    1.000000    
    833 O     c    0.804923 *  0.989883 *  0.260021 *   0.86902    1.000000    
    834 O     c    0.802478 *  0.942742 *  0.324549 *   0.86902    1.000000    
    835 O     c    0.941706 *  0.985955 *  0.219788 *   0.86902    1.000000    
    836 O     c    0.749227 *  0.920190 *  0.418846 *   0.86902    1.000000    
    837 O     c    0.844417 *  0.986870 *  0.340525 *   0.86902    1.000000    
    838 O     c    0.886306 *  0.942222 *  0.331053 *   0.86902    1.000000    
    839 O     c    0.805471 *  0.897125 *  0.255595 *   0.86902    1.000000    
    840 O     c    0.902881 *  0.996013 *  0.366547 *   0.86902    1.000000    
    841 O     c    0.639445 *  0.917679 *  0.414877 *   0.86902    1.000000    
    842 O     c    0.886137 *  0.895917 *  0.263975 *   0.86902    1.000000    
    843 O     c    0.900968 *  0.888159 *  0.366286 *   0.86902    1.000000    
    844 O     c    0.693794 *  0.941014 *  0.438035 *   0.86902    1.000000    
    845 O     c    0.942436 *  0.350529 *  0.389075 *   0.86902    1.000000    
    846 O     c    0.886450 *  0.988619 *  0.264767 *   0.86902    1.000000    
    847 O     c    0.843453 *  0.897946 *  0.338265 *   0.86902    1.000000    
    848 O     c    0.955696 *  0.446347 *  0.494566 *   0.86902    1.000000    
    849 O     c    0.740100 *  0.980465 *  0.425758 *   0.86902    1.000000    
    850 O     c    0.899654 *  0.942183 *  0.200613 *   0.86902    1.000000    
    851 O     c    0.745838 *  0.859226 *  0.410491 *   0.86902    1.000000    
    852 O     c    0.727440 *  0.896131 *  0.330169 *   0.86902    1.000000    
    853 O     c    0.959469 *  0.366321 *  0.487179 *   0.86902    1.000000    
    854 O     c    0.942277 *  0.898982 *  0.222965 *   0.86902    1.000000    
    855 O     c    0.944121 *  0.856809 *  0.411809 *   0.86902    1.000000    
    856 O     c    0.953759 *  0.978445 *  0.418568 *   0.86902    1.000000    
    857 O     c    0.962289 *  0.943311 *  0.286272 *   0.86902    1.000000    
    858 O     c    0.958000 *  0.999393 *  0.319674 *   0.86902    1.000000    
    859 O     c    0.955435 *  0.809340 *  0.474215 *   0.86902    1.000000    
    860 O     c    0.945777 *  0.917927 *  0.415328 *   0.86902    1.000000    
    861 O     c    0.957084 *  0.407951 *  0.412236 *   0.86902    1.000000    
    862 O     c    0.957305 *  0.888256 *  0.324930 *   0.86902    1.000000    
    863 O     c    0.894179 *  0.888114 *  0.159742 *   0.86902    1.000000    
    864 O     c    0.945083 *  0.292582 *  0.424551 *   0.86902    1.000000    
    865 Si    c    0.640804 *  0.001604 *  0.370729 *   4.00000    1.000000    
    866 Si    c    0.728521 *  0.060087 *  0.428554 *   4.00000    1.000000    
    867 Si    c    0.727764 *  0.155623 *  0.537634 *   4.00000    1.000000    
    868 Si    c    0.249527 *  0.189956 *  0.373948 *   4.00000    1.000000    
    869 Si    c    0.728145 *  0.130189 *  0.423519 *   4.00000    1.000000    
    870 Si    c    0.192198 *  0.214939 *  0.316844 *   4.00000    1.000000    
    871 Si    c    0.695232 *  0.907284 *  0.305512 *   4.00000    1.000000    
    872 Si    c    0.656141 *  0.059671 *  0.432118 *   4.00000    1.000000    
    873 Si    c    0.655603 *  0.129245 *  0.424615 *   4.00000    1.000000    
    874 Si    c    0.637950 *  0.187954 *  0.369732 *   4.00000    1.000000    
    875 Si    c    0.696652 *  0.980618 *  0.301415 *   4.00000    1.000000    
    876 Si    c    0.695332 *  0.214555 *  0.306942 *   4.00000    1.000000    
    877 Si    c    0.655843 *  0.156383 *  0.537171 *   4.00000    1.000000    
    878 Si    c    0.594337 *  0.215454 *  0.288804 *   4.00000    1.000000    
    879 Si    c    0.121882 *  0.215325 *  0.325151 *   4.00000    1.000000    
    880 Si    c    0.728553 *  0.216248 *  0.481512 *   4.00000    1.000000    
    881 Si    c    0.035254 *  0.214959 *  0.271859 *   4.00000    1.000000    
    882 Si    c    0.656649 *  0.216200 *  0.477878 *   4.00000    1.000000    
    883 Si    c    0.250345 *  0.000778 *  0.124726 *   4.00000    1.000000    
    884 Si    c    0.138272 *  0.888705 *  0.124726 *   4.00000    1.000000    
    885 Si    c    0.436894 *  0.187326 *  0.124726 *   4.00000    1.000000    
    886 O     c    0.689845 *  0.250908 *  0.316625 *   0.86902    1.000000    
    887 O     c    0.746243 *  0.036751 *  0.389274 *   0.86902    1.000000    
    888 O     c    0.637485 *  0.035679 *  0.395615 *   0.86902    1.000000    
    889 O     c    0.214888 *  0.193834 *  0.352021 *   0.86902    1.000000    
    890 O     c    0.739450 *  0.055356 *  0.489430 *   0.86902    1.000000    
    891 O     c    0.692309 *  0.052911 *  0.424902 *   0.86902    1.000000    
    892 O     c    0.735522 *  0.192139 *  0.529663 *   0.86902    1.000000    
    893 O     c    0.669757 *  0.999660 *  0.330605 *   0.86902    1.000000    
    894 O     c    0.736438 *  0.094850 *  0.408927 *   0.86902    1.000000    
    895 O     c    0.691789 *  0.136738 *  0.418398 *   0.86902    1.000000    
    896 O     c    0.646692 *  0.055904 *  0.493857 *   0.86902    1.000000    
    897 O     c    0.745580 *  0.153314 *  0.382905 *   0.86902    1.000000    
    898 O     c    0.667246 *  0.889877 *  0.334575 *   0.86902    1.000000    
    899 O     c    0.645485 *  0.136570 *  0.485476 *   0.86902    1.000000    
    900 O     c    0.637726 *  0.151401 *  0.383166 *   0.86902    1.000000    
    901 O     c    0.690581 *  0.944227 *  0.311416 *   0.86902    1.000000    
    902 O     c    0.100096 *  0.192869 *  0.360377 *   0.86902    1.000000    
    903 O     c    0.738186 *  0.136883 *  0.484684 *   0.86902    1.000000    
    904 O     c    0.647513 *  0.093886 *  0.411187 *   0.86902    1.000000    
    905 O     c    0.195914 *  0.206128 *  0.254885 *   0.86902    1.000000    
    906 O     c    0.730032 *  0.990533 *  0.323693 *   0.86902    1.000000    
    907 O     c    0.691750 *  0.150087 *  0.548839 *   0.86902    1.000000    
    908 O     c    0.608793 *  0.996271 *  0.338961 *   0.86902    1.000000    
    909 O     c    0.645698 *  0.977873 *  0.419283 *   0.86902    1.000000    
    910 O     c    0.115888 *  0.209902 *  0.262272 *   0.86902    1.000000    
    911 O     c    0.648549 *  0.192710 *  0.526486 *   0.86902    1.000000    
    912 O     c    0.606376 *  0.194554 *  0.337643 *   0.86902    1.000000    
    913 O     c    0.728012 *  0.204192 *  0.330883 *   0.86902    1.000000    
    914 O     c    0.692878 *  0.212722 *  0.463179 *   0.86902    1.000000    
    915 O     c    0.748960 *  0.208433 *  0.429778 *   0.86902    1.000000    
    916 O     c    0.558907 *  0.205868 *  0.275237 *   0.86902    1.000000    
    917 O     c    0.667494 *  0.196210 *  0.334123 *   0.86902    1.000000    
    918 O     c    0.157518 *  0.207517 *  0.337216 *   0.86902    1.000000    
    919 O     c    0.637823 *  0.207738 *  0.424521 *   0.86902    1.000000    
    920 O     c    0.637681 *  0.144612 *  0.589709 *   0.86902    1.000000    
    921 O     c    0.042150 *  0.195515 *  0.324900 *   0.86902    1.000000    
    922 O     c    0.200401 *  0.250908 *  0.325657 *   0.86902    1.000000    
    923 O     c    0.596542 *  0.250908 *  0.307592 *   0.86902    1.000000    
    924 O     c    0.648313 *  0.250908 *  0.496755 *   0.86902    1.000000    
    925 O     c    0.113930 *  0.250908 *  0.339640 *   0.86902    1.000000    
    926 O     c    0.043210 *  0.250908 *  0.497650 *   0.86902    1.000000    
    927 O     c    0.735953 *  0.250908 *  0.502084 *   0.86902    1.000000    
    928 O     c    0.040311 *  0.250908 *  0.286884 *   0.86902    1.000000    
    929 Si    c    0.860146 *  0.000212 *  0.870729 *   4.00000    1.000000    
    930 Si    c    0.772429 *  0.941729 *  0.928554 *   4.00000    1.000000    
    931 Si    c    0.773186 *  0.846192 *  0.037634 *   4.00000    1.000000    
    932 Si    c    0.251423 *  0.811859 *  0.873948 *   4.00000    1.000000    
    933 Si    c    0.772805 *  0.871627 *  0.923519 *   4.00000    1.000000    
    934 Si    c    0.308752 *  0.786876 *  0.816844 *   4.00000    1.000000    
    935 Si    c    0.805717 *  0.094532 *  0.805512 *   4.00000    1.000000    
    936 Si    c    0.844809 *  0.942144 *  0.932118 *   4.00000    1.000000    
    937 Si    c    0.845346 *  0.872571 *  0.924615 *   4.00000    1.000000    
    938 Si    c    0.863000 *  0.813861 *  0.869732 *   4.00000    1.000000    
    939 Si    c    0.804298 *  0.021198 *  0.801415 *   4.00000    1.000000    
    940 Si    c    0.805618 *  0.787261 *  0.806942 *   4.00000    1.000000    
    941 Si    c    0.845107 *  0.845432 *  0.037171 *   4.00000    1.000000    
    942 Si    c    0.906613 *  0.786361 *  0.788804 *   4.00000    1.000000    
    943 Si    c    0.379068 *  0.786490 *  0.825151 *   4.00000    1.000000    
    944 Si    c    0.772396 *  0.785567 *  0.981512 *   4.00000    1.000000    
    945 Si    c    0.465696 *  0.786856 *  0.771859 *   4.00000    1.000000    
    946 Si    c    0.844301 *  0.785615 *  0.977878 *   4.00000    1.000000    
    947 Si    c    0.250604 *  0.001037 *  0.624726 *   4.00000    1.000000    
    948 Si    c    0.362678 *  0.113111 *  0.624726 *   4.00000    1.000000    
    949 Si    c    0.064056 *  0.814489 *  0.624726 *   4.00000    1.000000    
    950 O     c    0.811104 *  0.750908 *  0.816625 *   0.86902    1.000000    
    951 O     c    0.754707 *  0.965065 *  0.889274 *   0.86902    1.000000    
    952 O     c    0.863465 *  0.966136 *  0.895615 *   0.86902    1.000000    
    953 O     c    0.286061 *  0.807981 *  0.852021 *   0.86902    1.000000    
    954 O     c    0.761500 *  0.946459 *  0.989430 *   0.86902    1.000000    
    955 O     c    0.808641 *  0.948905 *  0.924902 *   0.86902    1.000000    
    956 O     c    0.765427 *  0.809677 *  0.029663 *   0.86902    1.000000    
    957 O     c    0.831193 *  0.002155 *  0.830605 *   0.86902    1.000000    
    958 O     c    0.764512 *  0.906966 *  0.908927 *   0.86902    1.000000    
    959 O     c    0.809160 *  0.865077 *  0.918398 *   0.86902    1.000000    
    960 O     c    0.854258 *  0.945911 *  0.993857 *   0.86902    1.000000    
    961 O     c    0.755370 *  0.848501 *  0.882905 *   0.86902    1.000000    
    962 O     c    0.833704 *  0.111938 *  0.834575 *   0.86902    1.000000    
    963 O     c    0.855465 *  0.865246 *  0.985476 *   0.86902    1.000000    
    964 O     c    0.863224 *  0.850415 *  0.883166 *   0.86902    1.000000    
    965 O     c    0.810369 *  0.057589 *  0.811416 *   0.86902    1.000000    
    966 O     c    0.400853 *  0.808946 *  0.860377 *   0.86902    1.000000    
    967 O     c    0.762763 *  0.864933 *  0.984684 *   0.86902    1.000000    
    968 O     c    0.853437 *  0.907929 *  0.911187 *   0.86902    1.000000    
[...]
   2869 O     s       0.000299     -0.000653      0.000000      0.000000
   2870 O     s      -0.000581      0.000365      0.000397      0.000000
   2871 O     s      -0.000322     -0.000022     -0.000118      0.000000
   2872 O     s      -0.000524     -0.000087      0.000334      0.000000
   2873 O     s       0.000326      0.000626     -0.000033      0.000000
   2874 O     s       0.000560      0.000627      0.000218      0.000000
   2875 O     s      -0.000369      0.000426      0.000059      0.000000
   2876 O     s      -0.000383     -0.000459      0.000242      0.000000
   2877 O     s      -0.000291      0.000692      0.000128      0.000000
   2878 O     s       0.000550      0.000400     -0.000128      0.000000
   2879 O     s       0.000156     -0.000648     -0.000001      0.000000
   2880 O     s       0.000378      0.000009      0.000123      0.000000
   2881 O     s      -0.000406     -0.000503     -0.000499      0.000000
   2882 O     s      -0.000529     -0.000027      0.000132      0.000000
   2883 O     s       0.000091     -0.000543      0.000379      0.000000
   2884 O     s      -0.000283      0.000018      0.000140      0.000000
   2885 O     s       0.000155      0.000645     -0.000018      0.000000
   2886 O     s       0.000440     -0.000424      0.000373      0.000000
   2887 O     s       0.000516     -0.000025      0.000135      0.000000
   2888 O     s       0.000375      0.000689     -0.000093      0.000000
   2889 O     s       0.000411      0.000586      0.000318      0.000000
   2890 O     s       0.000005      0.000250     -0.000145      0.000000
   2891 O     s       0.000493     -0.000431     -0.000234      0.000000
   2892 O     s       0.000369     -0.000686     -0.000079      0.000000
   2893 O     s       0.000104      0.000576      0.000371      0.000000
   2894 O     s       0.000591     -0.000131     -0.000002      0.000000
   2895 O     s      -0.000093     -0.000352      0.000304      0.000000
   2896 O     s       0.000269      0.000002     -0.000213      0.000000
   2897 O     s      -0.000489      0.000553     -0.000244      0.000000
   2898 O     s      -0.000237      0.000270     -0.000259      0.000000
   2899 O     s       0.000373     -0.000430      0.000107      0.000000
   2900 O     s      -0.000449      0.000514     -0.000450      0.000000
   2901 O     s       0.000445      0.000590     -0.000192      0.000000
   2902 O     s      -0.000060     -0.000225      0.000207      0.000000
   2903 O     s       0.000102      0.000017      0.000355      0.000000
   2904 O     s      -0.000299     -0.000653      0.000000      0.000000
   2905 O     s       0.000582      0.000366     -0.000396      0.000000
   2906 O     s       0.000323     -0.000020      0.000119      0.000000
   2907 O     s       0.000523     -0.000090     -0.000335      0.000000
   2908 O     s      -0.000326      0.000625      0.000033      0.000000
   2909 O     s      -0.000559      0.000626     -0.000217      0.000000
   2910 O     s       0.000381      0.000424     -0.000059      0.000000
   2911 O     s      -0.000459      0.000383      0.000242      0.000000
   2912 O     s       0.000692      0.000291      0.000127      0.000000
   2913 O     s       0.000402     -0.000550     -0.000128      0.000000
   2914 O     s      -0.000648     -0.000156     -0.000001      0.000000
   2915 O     s       0.000009     -0.000378      0.000122      0.000000
   2916 O     s      -0.000503      0.000408     -0.000499      0.000000
   2917 O     s      -0.000028      0.000529      0.000131      0.000000
   2918 O     s      -0.000543     -0.000091      0.000379      0.000000
   2919 O     s       0.000018      0.000283      0.000140      0.000000
   2920 O     s       0.000645     -0.000154     -0.000018      0.000000
   2921 O     s      -0.000424     -0.000439      0.000373      0.000000
   2922 O     s      -0.000026     -0.000516      0.000135      0.000000
   2923 O     s       0.000690     -0.000375     -0.000093      0.000000
   2924 O     s       0.000585     -0.000410      0.000318      0.000000
   2925 O     s       0.000250     -0.000005     -0.000145      0.000000
   2926 O     s      -0.000428     -0.000497     -0.000231      0.000000
   2927 O     s      -0.000687     -0.000369     -0.000079      0.000000
   2928 O     s       0.000576     -0.000104      0.000371      0.000000
   2929 O     s      -0.000129     -0.000591     -0.000003      0.000000
   2930 O     s      -0.000352      0.000093      0.000304      0.000000
   2931 O     s       0.000001     -0.000268     -0.000212      0.000000
   2932 O     s       0.000552      0.000489     -0.000244      0.000000
   2933 O     s       0.000269      0.000237     -0.000259      0.000000
   2934 O     s      -0.000426     -0.000365      0.000108      0.000000
   2935 O     s       0.000514      0.000451     -0.000451      0.000000
   2936 O     s       0.000589     -0.000445     -0.000192      0.000000
   2937 O     s      -0.000224      0.000061      0.000207      0.000000
   2938 O     s       0.000016     -0.000101      0.000356      0.000000
   2939 O     s      -0.000653      0.000300     -0.000000      0.000000
   2940 O     s       0.000365     -0.000581     -0.000397      0.000000
   2941 O     s      -0.000022     -0.000322      0.000118      0.000000
   2942 O     s      -0.000087     -0.000524     -0.000334      0.000000
   2943 O     s       0.000626      0.000327      0.000033      0.000000
   2944 O     s       0.000627      0.000560     -0.000217      0.000000
   2945 O     s       0.000426     -0.000370     -0.000059      0.000000
   2946 O     s       0.000459     -0.000383      0.000241      0.000000
   2947 O     s      -0.000692     -0.000292      0.000127      0.000000
   2948 O     s      -0.000401      0.000548     -0.000129      0.000000
   2949 O     s       0.000648      0.000156     -0.000001      0.000000
   2950 O     s      -0.000009      0.000378      0.000122      0.000000
   2951 O     s       0.000504     -0.000407     -0.000501      0.000000
   2952 O     s       0.000028     -0.000529      0.000131      0.000000
   2953 O     s       0.000543      0.000091      0.000379      0.000000
   2954 O     s      -0.000018     -0.000282      0.000139      0.000000
   2955 O     s      -0.000645      0.000155     -0.000019      0.000000
   2956 O     s       0.000424      0.000441      0.000374      0.000000
   2957 O     s       0.000026      0.000516      0.000135      0.000000
   2958 O     s      -0.000690      0.000375     -0.000095      0.000000
   2959 O     s      -0.000586      0.000410      0.000317      0.000000
   2960 O     s      -0.000249      0.000005     -0.000145      0.000000
   2961 O     s       0.000428      0.000497     -0.000231      0.000000
   2962 O     s       0.000687      0.000369     -0.000079      0.000000
   2963 O     s      -0.000576      0.000104      0.000370      0.000000
   2964 O     s       0.000129      0.000592     -0.000003      0.000000
   2965 O     s       0.000352     -0.000093      0.000304      0.000000
   2966 O     s      -0.000001      0.000269     -0.000213      0.000000
   2967 O     s      -0.000553     -0.000488     -0.000244      0.000000
   2968 O     s      -0.000269     -0.000236     -0.000260      0.000000
   2969 O     s       0.000426      0.000365      0.000109      0.000000
   2970 O     s      -0.000514     -0.000451     -0.000450      0.000000
   2971 O     s      -0.000590      0.000441     -0.000193      0.000000
   2972 O     s       0.000225     -0.000061      0.000207      0.000000
   2973 O     s      -0.000017      0.000101      0.000355      0.000000
   2974 O     s       0.000655     -0.000299     -0.000001      0.000000
   2975 O     s      -0.000358      0.000583     -0.000391      0.000000
   2976 O     s       0.000019      0.000323      0.000118      0.000000
   2977 O     s       0.000086      0.000524     -0.000334      0.000000
   2978 O     s      -0.000625     -0.000327      0.000032      0.000000
   2979 O     s      -0.000627     -0.000560     -0.000218      0.000000
   2980 O     s      -0.000426      0.000369     -0.000059      0.000000
   2981 O     s      -0.000383      0.000459     -0.000242      0.000000
   2982 O     s      -0.000292     -0.000692     -0.000127      0.000000
   2983 O     s       0.000549     -0.000400      0.000129      0.000000
   2984 O     s       0.000156      0.000648      0.000001      0.000000
   2985 O     s       0.000378     -0.000009     -0.000122      0.000000
   2986 O     s      -0.000407      0.000505      0.000502      0.000000
   2987 O     s      -0.000530      0.000027     -0.000131      0.000000
   2988 O     s       0.000091      0.000543     -0.000379      0.000000
   2989 O     s      -0.000280     -0.000019     -0.000139      0.000000
   2990 O     s       0.000154     -0.000645      0.000018      0.000000
   2991 O     s       0.000444      0.000424     -0.000375      0.000000
   2992 O     s       0.000516      0.000025     -0.000135      0.000000
   2993 O     s       0.000376     -0.000691      0.000094      0.000000
   2994 O     s       0.000410     -0.000587     -0.000317      0.000000
   2995 O     s       0.000005     -0.000250      0.000145      0.000000
   2996 O     s       0.000497      0.000429      0.000232      0.000000
   2997 O     s       0.000371      0.000689      0.000079      0.000000
   2998 O     s       0.000104     -0.000576     -0.000370      0.000000
   2999 O     s       0.000591      0.000130      0.000003      0.000000
   3000 O     s      -0.000094      0.000351     -0.000304      0.000000
   3001 O     s       0.000269     -0.000001      0.000212      0.000000
   3002 O     s      -0.000489     -0.000554      0.000244      0.000000
   3003 O     s      -0.000237     -0.000270      0.000259      0.000000
   3004 O     s       0.000366      0.000427     -0.000108      0.000000
   3005 O     s      -0.000452     -0.000514      0.000449      0.000000
   3006 O     s       0.000437     -0.000591      0.000193      0.000000
   3007 O     s      -0.000061      0.000226     -0.000206      0.000000
   3008 O     s       0.000099     -0.000019     -0.000355      0.000000
   3009 O     s      -0.000300      0.000658      0.000001      0.000000
   3010 O     s       0.000583     -0.000354      0.000387      0.000000
   3011 O     s       0.000325      0.000014     -0.000118      0.000000
   3012 O     s       0.000525      0.000088      0.000334      0.000000
   3013 O     s      -0.000327     -0.000625     -0.000032      0.000000
   3014 O     s      -0.000560     -0.000628      0.000217      0.000000
   3015 O     s       0.000370     -0.000425      0.000059      0.000000
   3016 O     s       0.000383      0.000459      0.000241      0.000000
   3017 O     s       0.000291     -0.000693      0.000127      0.000000
   3018 O     s      -0.000550     -0.000402     -0.000129      0.000000
   3019 O     s      -0.000157      0.000648     -0.000001      0.000000
   3020 O     s      -0.000379     -0.000009      0.000122      0.000000
   3021 O     s       0.000407      0.000503     -0.000499      0.000000
   3022 O     s       0.000529      0.000027      0.000131      0.000000
   3023 O     s      -0.000092      0.000543      0.000379      0.000000
   3024 O     s       0.000282     -0.000018      0.000140      0.000000
   3025 O     s      -0.000155     -0.000646     -0.000019      0.000000
   3026 O     s      -0.000440      0.000424      0.000373      0.000000
   3027 O     s      -0.000516      0.000025      0.000135      0.000000
   3028 O     s      -0.000376     -0.000690     -0.000094      0.000000
   3029 O     s      -0.000410     -0.000586      0.000318      0.000000
   3030 O     s      -0.000005     -0.000250     -0.000146      0.000000
   3031 O     s      -0.000497      0.000428     -0.000232      0.000000
   3032 O     s      -0.000369      0.000687     -0.000079      0.000000
   3033 O     s      -0.000104     -0.000576      0.000371      0.000000
   3034 O     s      -0.000592      0.000129     -0.000004      0.000000
   3035 O     s       0.000093      0.000352      0.000303      0.000000
   3036 O     s      -0.000269     -0.000001     -0.000213      0.000000
   3037 O     s       0.000489     -0.000553     -0.000245      0.000000
   3038 O     s       0.000236     -0.000269     -0.000260      0.000000
   3039 O     s      -0.000365      0.000426      0.000108      0.000000
   3040 O     s       0.000450     -0.000514     -0.000451      0.000000
   3041 O     s      -0.000445     -0.000590     -0.000192      0.000000
   3042 O     s       0.000061      0.000223      0.000207      0.000000
   3043 O     s      -0.000101     -0.000016      0.000355      0.000000
   3044 O     s       0.000299      0.000653     -0.000000      0.000000
   3045 O     s      -0.000582     -0.000365     -0.000397      0.000000
   3046 O     s      -0.000322      0.000021      0.000117      0.000000
   3047 O     s      -0.000524      0.000087     -0.000335      0.000000
   3048 O     s       0.000326     -0.000626      0.000032      0.000000
   3049 O     s       0.000560     -0.000627     -0.000217      0.000000
   3050 O     s      -0.000369     -0.000426     -0.000059      0.000000
   3051 O     s       0.000459      0.000383     -0.000242      0.000000
   3052 O     s      -0.000693      0.000291     -0.000128      0.000000
   3053 O     s      -0.000402     -0.000550      0.000128      0.000000
   3054 O     s       0.000648     -0.000156      0.000001      0.000000
   3055 O     s      -0.000009     -0.000379     -0.000122      0.000000
   3056 O     s       0.000503      0.000407      0.000499      0.000000
   3057 O     s       0.000027      0.000529     -0.000132      0.000000
   3058 O     s       0.000543     -0.000091     -0.000380      0.000000
   3059 O     s      -0.000018      0.000283     -0.000140      0.000000
   3060 O     s      -0.000646     -0.000154      0.000018      0.000000
   3061 O     s       0.000423     -0.000439     -0.000373      0.000000
   3062 O     s       0.000025     -0.000516     -0.000135      0.000000
   3063 O     s      -0.000690     -0.000375      0.000093      0.000000
   3064 O     s      -0.000586     -0.000410     -0.000319      0.000000
   3065 O     s      -0.000250     -0.000005      0.000145      0.000000
   3066 O     s       0.000428     -0.000497      0.000231      0.000000
   3067 O     s       0.000687     -0.000368      0.000079      0.000000
   3068 O     s      -0.000576     -0.000104     -0.000371      0.000000
   3069 O     s       0.000129     -0.000591      0.000003      0.000000
   3070 O     s       0.000352      0.000094     -0.000304      0.000000
   3071 O     s      -0.000001     -0.000268      0.000212      0.000000
   3072 O     s      -0.000553      0.000489      0.000244      0.000000
   3073 O     s      -0.000269      0.000237      0.000259      0.000000
   3074 O     s       0.000426     -0.000365     -0.000109      0.000000
   3075 O     s      -0.000514      0.000450      0.000450      0.000000
   3076 O     s      -0.000590     -0.000445      0.000192      0.000000
   3077 O     s       0.000223      0.000061     -0.000207      0.000000
   3078 O     s      -0.000016     -0.000101     -0.000356      0.000000
   3079 O     s       0.000652      0.000299     -0.000000      0.000000
   3080 O     s      -0.000365     -0.000582      0.000396      0.000000
   3081 O     s       0.000021     -0.000322     -0.000118      0.000000
   3082 O     s       0.000087     -0.000524      0.000334      0.000000
   3083 O     s      -0.000626      0.000326     -0.000033      0.000000
   3084 O     s      -0.000626      0.000560      0.000217      0.000000
   3085 O     s      -0.000425     -0.000369      0.000059      0.000000
   3086 O     s      -0.000459     -0.000383     -0.000241      0.000000
   3087 O     s       0.000692     -0.000292     -0.000127      0.000000
   3088 O     s       0.000399      0.000551      0.000129      0.000000
   3089 O     s      -0.000648      0.000156      0.000001      0.000000
   3090 O     s       0.000009      0.000378     -0.000122      0.000000
   3091 O     s      -0.000503     -0.000408      0.000499      0.000000
   3092 O     s      -0.000027     -0.000529     -0.000131      0.000000
   3093 O     s      -0.000543      0.000091     -0.000379      0.000000
   3094 O     s       0.000018     -0.000283     -0.000139      0.000000
   3095 O     s       0.000645      0.000154      0.000018      0.000000
   3096 O     s      -0.000424      0.000439     -0.000373      0.000000
   3097 O     s      -0.000025      0.000516     -0.000134      0.000000
   3098 O     s       0.000690      0.000375      0.000094      0.000000
   3099 O     s       0.000585      0.000410     -0.000318      0.000000
   3100 O     s       0.000250      0.000005      0.000145      0.000000
   3101 O     s      -0.000440      0.000488      0.000240      0.000000
   3102 O     s      -0.000686      0.000368      0.000079      0.000000
   3103 O     s       0.000576      0.000104     -0.000370      0.000000
   3104 O     s      -0.000132      0.000591      0.000002      0.000000
   3105 O     s      -0.000351     -0.000093     -0.000303      0.000000
   3106 O     s       0.000001      0.000268      0.000213      0.000000
   3107 O     s       0.000553     -0.000489      0.000244      0.000000
   3108 O     s       0.000269     -0.000237      0.000260      0.000000
   3109 O     s      -0.000438      0.000386     -0.000105      0.000000
   3110 O     s       0.000514     -0.000451      0.000451      0.000000
   3111 O     s       0.000590      0.000445      0.000193      0.000000
   3112 O     s      -0.000223     -0.000061     -0.000206      0.000000
   3113 O     s       0.000016      0.000101     -0.000355      0.000000
   3114 O     s      -0.000652     -0.000300      0.000001      0.000000
   3115 O     s       0.000366      0.000581      0.000397      0.000000
   3116 O     s      -0.000022      0.000322     -0.000117      0.000000
   3117 O     s      -0.000094      0.000523      0.000340      0.000000
   3118 O     s       0.000626     -0.000327     -0.000032      0.000000
   3119 O     s       0.000627     -0.000560      0.000217      0.000000
   3120 O     s       0.000479      0.000456      0.000063      0.000000
--------------------------------------------------------------------------------
  Maximum abs         0.000693      0.000694      0.000505      0.000000
--------------------------------------------------------------------------------


  Time to end of optimisation =     851.8100 seconds


  Peak dynamic memory used =     282.42 MB 


  Timing analysis for GULP :

--------------------------------------------------------------------------------
  Task / Subroutine                                          Time (Seconds)
--------------------------------------------------------------------------------
  Calculation of reciprocal space energy and derivatives         84.6450
  Calculation of real space energy and derivatives               70.4849
  Calculation of three-body energy and derivatives                9.8238
  Calculation and manipulation of Hessian matrix                326.7324
  Calculation of matrix inversion                               357.9975
  Symmetry generation of equivalent positions                     0.0227
  Global summation overhead                                       1.4648
--------------------------------------------------------------------------------
  Total CPU time                                                851.8101
--------------------------------------------------------------------------------


  Dump file written as ReferenceDataBase/JZO.grs
  CIF file written as ReferenceDataBase/JZO_opt.cif


  Job Finished at 14:29.44 20th April      2023                               

