********************************************************************************
*                       GENERAL UTILITY LATTICE PROGRAM                        *
*                                 Julian Gale                                  *
*                       Curtin Institute for Computation                       *
*                    School of Molecular and Life Sciences                     *
*                    Curtin University, Western Australia                      *
********************************************************************************
* Version = 6.1.2 * Last modified =   3rd November 2022                        *
********************************************************************************
*  optimise     - perform optimisation run                                     *
*  conp         - constant pressure calculation                                *
*  nosymmetry   - turn off symmetry after initial structure generation         *
********************************************************************************

  Job Started  at 14:14.42 20th April      2023                               

  Number of CPUs =     8


  Total number of configurations input =      1

********************************************************************************
*  Input for Configuration =   1 : ReferenceDataBase/NUD-3                     *
********************************************************************************

  Formula = Si36O72                                                     

  Number of irreducible atoms/shells =     180


  Total number atoms/shells =     180

  Dimensionality = 3               :  Bulk   



  Cartesian lattice vectors (Angstroms) :

       13.914700    0.000000    0.000000
        0.000000   13.799600    0.000000
        0.000000    0.000000   12.835300

  Cell parameters (Angstroms/Degrees):

  a =      13.9147    alpha =  90.0000
  b =      13.7996    beta  =  90.0000
  c =      12.8353    gamma =  90.0000

  Initial cell volume =        2464.599575 Angs**3

  Temperature of configuration =   0.00     K 

  Pressure of configuration =         0.000 GPa 

  Fractional coordinates of asymmetric unit :

--------------------------------------------------------------------------------
   No.  Atomic       x           y          z         Charge      Occupancy
        Label      (Frac)      (Frac)     (Frac)        (e)         (Frac)  
--------------------------------------------------------------------------------
      1 Si    c    0.885147 *  0.607097 *  0.374007 *   4.00000    1.000000    
      2 Si    c    0.602044 *  0.610383 *  0.496224 *   4.00000    1.000000    
      3 Si    c    0.605223 *  0.607984 *  0.115062 *   4.00000    1.000000    
      4 Si    c    0.704701 *  0.704324 *  0.301779 *   4.00000    1.000000    
      5 O     c    0.818313 *  0.682679 *  0.311447 *   0.86902    1.000000    
      6 O     c    0.671836 *  0.672552 *  0.187798 *   0.86902    1.000000    
      7 O     c    0.336880 *  0.348218 *  0.391400 *   0.86902    1.000000    
      8 O     c    0.860616 *  0.496140 *  0.343094 *   0.86902    1.000000    
      9 O     c    0.613924 *  0.863469 *  0.496224 *   0.86902    1.000000    
     10 O     c    0.494656 *  0.625651 *  0.145223 *   0.86902    1.000000    
     11 O     c    0.994656 *  0.631462 *  0.344337 *   0.86902    1.000000    
     12 O     c    0.624271 *  0.639325 *  0.996224 *   0.86902    1.000000    
     13 O     c    0.387254 *  0.496140 *  0.496224 *   0.86902    1.000000    
     14 Si    c    0.104166 *  0.385183 *  0.374007 *   4.00000    1.000000    
     15 Si    c    0.387269 *  0.381896 *  0.496224 *   4.00000    1.000000    
     16 Si    c    0.384090 *  0.384296 *  0.115062 *   4.00000    1.000000    
     17 Si    c    0.284611 *  0.287955 *  0.301779 *   4.00000    1.000000    
     18 O     c    0.171000 *  0.309600 *  0.311447 *   0.86902    1.000000    
     19 O     c    0.317476 *  0.319728 *  0.187798 *   0.86902    1.000000    
     20 O     c    0.652433 *  0.644062 *  0.391400 *   0.86902    1.000000    
     21 O     c    0.128696 *  0.496140 *  0.343094 *   0.86902    1.000000    
     22 O     c    0.375389 *  0.128811 *  0.496224 *   0.86902    1.000000    
     23 O     c    0.494656 *  0.366628 *  0.145223 *   0.86902    1.000000    
     24 O     c    0.994656 *  0.360817 *  0.344337 *   0.86902    1.000000    
     25 O     c    0.365041 *  0.352955 *  0.996224 *   0.86902    1.000000    
     26 O     c    0.602058 *  0.496140 *  0.496224 *   0.86902    1.000000    
     27 Si    c    0.104166 *  0.607097 *  0.618440 *   4.00000    1.000000    
     28 Si    c    0.387269 *  0.610383 *  0.496224 *   4.00000    1.000000    
     29 Si    c    0.384090 *  0.607984 *  0.877386 *   4.00000    1.000000    
     30 Si    c    0.284611 *  0.704324 *  0.690668 *   4.00000    1.000000    
     31 O     c    0.171000 *  0.682679 *  0.681000 *   0.86902    1.000000    
     32 O     c    0.317476 *  0.672552 *  0.804650 *   0.86902    1.000000    
     33 O     c    0.652433 *  0.348218 *  0.601047 *   0.86902    1.000000    
     34 O     c    0.128696 *  0.496140 *  0.649353 *   0.86902    1.000000    
     35 O     c    0.375389 *  0.863469 *  0.496224 *   0.86902    1.000000    
     36 O     c    0.494656 *  0.625651 *  0.847225 *   0.86902    1.000000    
     37 O     c    0.994656 *  0.631462 *  0.648111 *   0.86902    1.000000    
     38 O     c    0.365041 *  0.639325 *  0.996224 *   0.86902    1.000000    
     39 Si    c    0.104166 *  0.607097 *  0.374007 *   4.00000    1.000000    
     40 Si    c    0.384090 *  0.607984 *  0.115062 *   4.00000    1.000000    
     41 Si    c    0.284611 *  0.704324 *  0.301779 *   4.00000    1.000000    
     42 O     c    0.171000 *  0.682679 *  0.311447 *   0.86902    1.000000    
     43 O     c    0.317476 *  0.672552 *  0.187798 *   0.86902    1.000000    
     44 O     c    0.652433 *  0.348218 *  0.391400 *   0.86902    1.000000    
     45 Si    c    0.385029 *  0.106658 *  0.618157 *   4.00000    1.000000    
     46 Si    c    0.384090 *  0.384296 *  0.877386 *   4.00000    1.000000    
     47 Si    c    0.284611 *  0.287955 *  0.690668 *   4.00000    1.000000    
     48 O     c    0.309782 *  0.174439 *  0.679137 *   0.86902    1.000000    
     49 O     c    0.317476 *  0.319728 *  0.804650 *   0.86902    1.000000    
     50 O     c    0.652433 *  0.644062 *  0.601047 *   0.86902    1.000000    
     51 O     c    0.494656 *  0.127149 *  0.654093 *   0.86902    1.000000    
     52 O     c    0.121687 *  0.370972 *  0.496224 *   0.86902    1.000000    
     53 O     c    0.357323 *  0.496140 *  0.861235 *   0.86902    1.000000    
     54 O     c    0.356973 *  0.996140 *  0.642937 *   0.86902    1.000000    
     55 O     c    0.494656 *  0.653207 *  0.496224 *   0.86902    1.000000    
     56 Si    c    0.385029 *  0.106658 *  0.374290 *   4.00000    1.000000    
     57 O     c    0.309782 *  0.174439 *  0.313311 *   0.86902    1.000000    
     58 O     c    0.494656 *  0.127149 *  0.338354 *   0.86902    1.000000    
     59 O     c    0.357323 *  0.496140 *  0.131212 *   0.86902    1.000000    
     60 O     c    0.356973 *  0.996140 *  0.349511 *   0.86902    1.000000    
     61 Si    c    0.385029 *  0.885622 *  0.618157 *   4.00000    1.000000    
     62 O     c    0.309782 *  0.817840 *  0.679137 *   0.86902    1.000000    
     63 O     c    0.494656 *  0.865130 *  0.654093 *   0.86902    1.000000    
     64 O     c    0.121687 *  0.621308 *  0.496224 *   0.86902    1.000000    
     65 O     c    0.494656 *  0.339072 *  0.496224 *   0.86902    1.000000    
     66 Si    c    0.385029 *  0.885622 *  0.374290 *   4.00000    1.000000    
     67 O     c    0.309782 *  0.817840 *  0.313311 *   0.86902    1.000000    
     68 O     c    0.494656 *  0.865130 *  0.338354 *   0.86902    1.000000    
     69 Si    c    0.604284 *  0.106658 *  0.618157 *   4.00000    1.000000    
     70 Si    c    0.602044 *  0.381896 *  0.496224 *   4.00000    1.000000    
     71 Si    c    0.605223 *  0.384296 *  0.877386 *   4.00000    1.000000    
     72 Si    c    0.704701 *  0.287955 *  0.690668 *   4.00000    1.000000    
     73 O     c    0.679530 *  0.174439 *  0.679137 *   0.86902    1.000000    
     74 O     c    0.671836 *  0.319728 *  0.804650 *   0.86902    1.000000    
     75 O     c    0.336880 *  0.644062 *  0.601047 *   0.86902    1.000000    
     76 O     c    0.867626 *  0.370972 *  0.496224 *   0.86902    1.000000    
     77 O     c    0.631990 *  0.496140 *  0.861235 *   0.86902    1.000000    
     78 O     c    0.632340 *  0.996140 *  0.642937 *   0.86902    1.000000    
     79 O     c    0.624271 *  0.352955 *  0.996224 *   0.86902    1.000000    
     80 Si    c    0.604284 *  0.106658 *  0.374290 *   4.00000    1.000000    
     81 Si    c    0.605223 *  0.384296 *  0.115062 *   4.00000    1.000000    
     82 Si    c    0.704701 *  0.287955 *  0.301779 *   4.00000    1.000000    
     83 O     c    0.679530 *  0.174439 *  0.313311 *   0.86902    1.000000    
     84 O     c    0.671836 *  0.319728 *  0.187798 *   0.86902    1.000000    
     85 O     c    0.336880 *  0.644062 *  0.391400 *   0.86902    1.000000    
     86 O     c    0.631990 *  0.496140 *  0.131212 *   0.86902    1.000000    
     87 O     c    0.632340 *  0.996140 *  0.349511 *   0.86902    1.000000    
     88 Si    c    0.604284 *  0.885622 *  0.618157 *   4.00000    1.000000    
     89 Si    c    0.605223 *  0.607984 *  0.877386 *   4.00000    1.000000    
     90 Si    c    0.704701 *  0.704324 *  0.690668 *   4.00000    1.000000    
     91 O     c    0.679530 *  0.817840 *  0.679137 *   0.86902    1.000000    
     92 O     c    0.671836 *  0.672552 *  0.804650 *   0.86902    1.000000    
     93 O     c    0.336880 *  0.348218 *  0.601047 *   0.86902    1.000000    
     94 O     c    0.867626 *  0.621308 *  0.496224 *   0.86902    1.000000    
     95 Si    c    0.604284 *  0.885622 *  0.374290 *   4.00000    1.000000    
     96 O     c    0.679530 *  0.817840 *  0.313311 *   0.86902    1.000000    
     97 Si    c    0.885147 *  0.385183 *  0.618440 *   4.00000    1.000000    
     98 O     c    0.818313 *  0.309600 *  0.681000 *   0.86902    1.000000    
     99 O     c    0.860616 *  0.496140 *  0.649353 *   0.86902    1.000000    
    100 O     c    0.613924 *  0.128811 *  0.496224 *   0.86902    1.000000    
    101 O     c    0.494656 *  0.366628 *  0.847225 *   0.86902    1.000000    
    102 O     c    0.994656 *  0.360817 *  0.648111 *   0.86902    1.000000    
    103 Si    c    0.885147 *  0.385183 *  0.374007 *   4.00000    1.000000    
    104 O     c    0.818313 *  0.309600 *  0.311447 *   0.86902    1.000000    
    105 Si    c    0.885147 *  0.607097 *  0.618440 *   4.00000    1.000000    
    106 O     c    0.818313 *  0.682679 *  0.681000 *   0.86902    1.000000    
    107 Si    c    0.104166 *  0.385183 *  0.618440 *   4.00000    1.000000    
    108 O     c    0.171000    0.309600    0.681000     0.86902    1.000000    
    109 O     s    0.818313 *  0.682679 *  0.311447 *  -2.86902    1.000000    
    110 O     s    0.671836 *  0.672552 *  0.187798 *  -2.86902    1.000000    
    111 O     s    0.336880 *  0.348218 *  0.391400 *  -2.86902    1.000000    
    112 O     s    0.860616 *  0.496140 *  0.343094 *  -2.86902    1.000000    
    113 O     s    0.613924 *  0.863469 *  0.496224 *  -2.86902    1.000000    
    114 O     s    0.494656 *  0.625651 *  0.145223 *  -2.86902    1.000000    
    115 O     s    0.994656 *  0.631462 *  0.344337 *  -2.86902    1.000000    
    116 O     s    0.624271 *  0.639325 *  0.996224 *  -2.86902    1.000000    
    117 O     s    0.387254 *  0.496140 *  0.496224 *  -2.86902    1.000000    
    118 O     s    0.171000 *  0.309600 *  0.311447 *  -2.86902    1.000000    
    119 O     s    0.317476 *  0.319728 *  0.187798 *  -2.86902    1.000000    
    120 O     s    0.652433 *  0.644062 *  0.391400 *  -2.86902    1.000000    
    121 O     s    0.128696 *  0.496140 *  0.343094 *  -2.86902    1.000000    
    122 O     s    0.375389 *  0.128811 *  0.496224 *  -2.86902    1.000000    
    123 O     s    0.494656 *  0.366628 *  0.145223 *  -2.86902    1.000000    
    124 O     s    0.994656 *  0.360817 *  0.344337 *  -2.86902    1.000000    
    125 O     s    0.365041 *  0.352955 *  0.996224 *  -2.86902    1.000000    
    126 O     s    0.602058 *  0.496140 *  0.496224 *  -2.86902    1.000000    
    127 O     s    0.171000 *  0.682679 *  0.681000 *  -2.86902    1.000000    
    128 O     s    0.317476 *  0.672552 *  0.804650 *  -2.86902    1.000000    
    129 O     s    0.652433 *  0.348218 *  0.601047 *  -2.86902    1.000000    
    130 O     s    0.128696 *  0.496140 *  0.649353 *  -2.86902    1.000000    
    131 O     s    0.375389 *  0.863469 *  0.496224 *  -2.86902    1.000000    
    132 O     s    0.494656 *  0.625651 *  0.847225 *  -2.86902    1.000000    
    133 O     s    0.994656 *  0.631462 *  0.648111 *  -2.86902    1.000000    
    134 O     s    0.365041 *  0.639325 *  0.996224 *  -2.86902    1.000000    
    135 O     s    0.171000 *  0.682679 *  0.311447 *  -2.86902    1.000000    
    136 O     s    0.317476 *  0.672552 *  0.187798 *  -2.86902    1.000000    
    137 O     s    0.652433 *  0.348218 *  0.391400 *  -2.86902    1.000000    
    138 O     s    0.309782 *  0.174439 *  0.679137 *  -2.86902    1.000000    
    139 O     s    0.317476 *  0.319728 *  0.804650 *  -2.86902    1.000000    
    140 O     s    0.652433 *  0.644062 *  0.601047 *  -2.86902    1.000000    
    141 O     s    0.494656 *  0.127149 *  0.654093 *  -2.86902    1.000000    
    142 O     s    0.121687 *  0.370972 *  0.496224 *  -2.86902    1.000000    
    143 O     s    0.357323 *  0.496140 *  0.861235 *  -2.86902    1.000000    
    144 O     s    0.356973 *  0.996140 *  0.642937 *  -2.86902    1.000000    
    145 O     s    0.494656 *  0.653207 *  0.496224 *  -2.86902    1.000000    
    146 O     s    0.309782 *  0.174439 *  0.313311 *  -2.86902    1.000000    
    147 O     s    0.494656 *  0.127149 *  0.338354 *  -2.86902    1.000000    
    148 O     s    0.357323 *  0.496140 *  0.131212 *  -2.86902    1.000000    
    149 O     s    0.356973 *  0.996140 *  0.349511 *  -2.86902    1.000000    
    150 O     s    0.309782 *  0.817840 *  0.679137 *  -2.86902    1.000000    
    151 O     s    0.494656 *  0.865130 *  0.654093 *  -2.86902    1.000000    
    152 O     s    0.121687 *  0.621308 *  0.496224 *  -2.86902    1.000000    
    153 O     s    0.494656 *  0.339072 *  0.496224 *  -2.86902    1.000000    
    154 O     s    0.309782 *  0.817840 *  0.313311 *  -2.86902    1.000000    
    155 O     s    0.494656 *  0.865130 *  0.338354 *  -2.86902    1.000000    
    156 O     s    0.679530 *  0.174439 *  0.679137 *  -2.86902    1.000000    
    157 O     s    0.671836 *  0.319728 *  0.804650 *  -2.86902    1.000000    
    158 O     s    0.336880 *  0.644062 *  0.601047 *  -2.86902    1.000000    
    159 O     s    0.867626 *  0.370972 *  0.496224 *  -2.86902    1.000000    
    160 O     s    0.631990 *  0.496140 *  0.861235 *  -2.86902    1.000000    
    161 O     s    0.632340 *  0.996140 *  0.642937 *  -2.86902    1.000000    
    162 O     s    0.624271 *  0.352955 *  0.996224 *  -2.86902    1.000000    
    163 O     s    0.679530 *  0.174439 *  0.313311 *  -2.86902    1.000000    
    164 O     s    0.671836 *  0.319728 *  0.187798 *  -2.86902    1.000000    
    165 O     s    0.336880 *  0.644062 *  0.391400 *  -2.86902    1.000000    
    166 O     s    0.631990 *  0.496140 *  0.131212 *  -2.86902    1.000000    
    167 O     s    0.632340 *  0.996140 *  0.349511 *  -2.86902    1.000000    
    168 O     s    0.679530 *  0.817840 *  0.679137 *  -2.86902    1.000000    
    169 O     s    0.671836 *  0.672552 *  0.804650 *  -2.86902    1.000000    
    170 O     s    0.336880 *  0.348218 *  0.601047 *  -2.86902    1.000000    
    171 O     s    0.867626 *  0.621308 *  0.496224 *  -2.86902    1.000000    
    172 O     s    0.679530 *  0.817840 *  0.313311 *  -2.86902    1.000000    
    173 O     s    0.818313 *  0.309600 *  0.681000 *  -2.86902    1.000000    
    174 O     s    0.860616 *  0.496140 *  0.649353 *  -2.86902    1.000000    
    175 O     s    0.613924 *  0.128811 *  0.496224 *  -2.86902    1.000000    
    176 O     s    0.494656 *  0.366628 *  0.847225 *  -2.86902    1.000000    
    177 O     s    0.994656 *  0.360817 *  0.648111 *  -2.86902    1.000000    
    178 O     s    0.818313 *  0.309600 *  0.311447 *  -2.86902    1.000000    
    179 O     s    0.818313 *  0.682679 *  0.681000 *  -2.86902    1.000000    
    180 O     s    0.171000 *  0.309600 *  0.681000 *  -2.86902    1.000000    
--------------------------------------------------------------------------------



********************************************************************************
*  General input information                                                   *
********************************************************************************

  Species output for all configurations : 

--------------------------------------------------------------------------------
  Species    Type    Atomic    Atomic    Charge       Radii (Angs)     Library
                     Number     Mass       (e)     Cova   Ionic  VDW   Symbol
--------------------------------------------------------------------------------
    O        Core        8      16.00   0.869020   0.730  0.000  1.360 O        
    O        Shell       8       0.00  -2.869020   0.730  0.000  0.000 O        
    Si       Core       14      28.09   4.000000   1.200  0.000  2.100 Si       
--------------------------------------------------------------------------------


  Lattice summation method               =    Ewald          (3-D)
                                         =    Parry          (2-D)
                                         =    Saunders et al (1-D)
  Accuracy factor for lattice sums       =   12.000


  Analytic derivatives to be used

  Time limit = Infinity

  Maximum range for interatomic potentials =    100000.000000 Angstroms

  General interatomic potentials :

--------------------------------------------------------------------------------
Atom  Types   Potential      Parameter       Value         Units   Cutoffs(Ang)
  1     2                                                            Min /  Max 
--------------------------------------------------------------------------------
Si   c O    s Buckingham    Buckingham A     1283.9070    eV        0.000 10.000
                            Buckingham rho  0.32052000    Ang       
                            Buckingham C     10.661580    eV*Ang^6  
--------------------------------------------------------------------------------
O    s O    s Buckingham    Buckingham A     22764.000    eV        0.000 12.000
                            Buckingham rho  0.14900000    Ang       
                            Buckingham C     27.879000    eV*Ang^6  
--------------------------------------------------------------------------------
O    c O    s Spring (c-s)  Spring k 2       74.920000    eV*Ang^-2 0.000  1.100
                            Spring k 4       0.0000000    eV*Ang^-4 
--------------------------------------------------------------------------------

  General Three-body potentials :

--------------------------------------------------------------------------------
  Atoms       Potential      Parameter       Value         Units   Cutoffs(Ang)
  1 / 2 / 3                                                          Min /  Max 
--------------------------------------------------------------------------------
Si    core    Harmonic      Three-body cnst  2.0972400    eV*rad^-2 0.000  1.900
O     shel                  Three-body angl  109.47000    degrees   0.000  1.900
O     shel                  Three-body k4    0.0000000    eV*rad^-4 0.000  3.500
                            Three-body k3    0.0000000    eV*rad^-3 
--------------------------------------------------------------------------------
Si    core    Harmonic      Three-body cnst  2.0972400    eV*rad^-2 0.000  1.900
O     shel                  Three-body angl  109.47000    degrees   0.000  1.900
õ(    shel                  Three-body k4    0.0000000    eV*rad^-4 0.000  3.500
                            Three-body k3    0.0000000    eV*rad^-3 
--------------------------------------------------------------------------------
Si    core    Harmonic      Three-body cnst  2.0972400    eV*rad^-2 0.000  1.900
õ(    shel                  Three-body angl  109.47000    degrees   0.000  1.900
õ(    shel                  Three-body k4    0.0000000    eV*rad^-4 0.000  3.500
                            Three-body k3    0.0000000    eV*rad^-3 
--------------------------------------------------------------------------------

********************************************************************************
*  Output for configuration   1 : ReferenceDataBase/NUD-3                      *
********************************************************************************


  Components of energy : 

--------------------------------------------------------------------------------
  Interatomic potentials     =        1132.66322252 eV    
  Three-body potentials      =           0.25821651 eV    
  Monopole - monopole (real) =       -4287.53715791 eV    
  Monopole - monopole (recip)=       -1414.06037632 eV    
  Monopole - monopole (total)=       -5701.59753423 eV    
--------------------------------------------------------------------------------
  Total lattice energy       =       -4568.67609519 eV    
--------------------------------------------------------------------------------
  Total lattice energy       =         -440807.4046 kJ/(mole unit cells)
--------------------------------------------------------------------------------


  Number of variables =      543

  Maximum number of calculations  =           500
  Maximum Hessian update interval =            10
  Maximum step size               =   0.100000000
  Maximum parameter tolerance     =   0.000010000
  Maximum function  tolerance     =   0.000010000
  Maximum gradient  tolerance     =   0.001000000
  Maximum gradient  component     =   0.010000000

  Cell parameters to be optimised using strains

  Newton-Raphson optimiser to be used

  BFGS hessian update to be used

  General 2-D hessian to be used

  Minimiser to switch to RFO
  When gradient norm is less than     0.080000

  Switch max step size to       0.30000000 when gnorm is less than     0.005000

  Dumpfile to be written after every cycle

  Start of bulk optimisation :

  Cycle:      0 Energy:     -4568.676095  Gnorm:      4.162230  CPU:    0.074
  ** Hessian calculated **
  Cycle:      1 Energy:     -4592.727054  Gnorm:      3.195135  CPU:    0.154
  ** Hessian calculated **
  Cycle:      2 Energy:     -4624.865874  Gnorm:      0.599692  CPU:    0.269
  ** Hessian calculated **
  Cycle:      3 Energy:     -4625.960576  Gnorm:      0.300323  CPU:    0.346
  Cycle:      4 Energy:     -4626.244097  Gnorm:      0.150434  CPU:    0.375
  Cycle:      5 Energy:     -4626.320306  Gnorm:      0.074777  CPU:    0.404
  ** Hessian has required structure
  Cycle:      6 Energy:     -4626.320456  Gnorm:      0.075221  CPU:    0.442
  ** Hessian has required structure
  Cycle:      7 Energy:     -4626.320494  Gnorm:      0.075599  CPU:    0.477
  ** Hessian has required structure
  Cycle:      8 Energy:     -4626.320512  Gnorm:      0.075812  CPU:    0.511
  ** Hessian has required structure
  Cycle:      9 Energy:     -4626.320542  Gnorm:      0.076367  CPU:    0.545
  ** Hessian has required structure
  Cycle:     10 Energy:     -4626.320568  Gnorm:      0.076666  CPU:    0.581
  ** Hessian has required structure
  ** Hessian has required structure
  Cycle:     11 Energy:     -4626.341579  Gnorm:      0.038359  CPU:    0.678
  ** Hessian has required structure
  Cycle:     12 Energy:     -4626.346952  Gnorm:      0.019182  CPU:    0.722
  ** Hessian has required structure
  Cycle:     13 Energy:     -4626.348404  Gnorm:      0.009546  CPU:    0.768
  ** Hessian has required structure
  Cycle:     14 Energy:     -4626.348862  Gnorm:      0.004734  CPU:    0.825
  ** Hessian has required structure
  Cycle:     15 Energy:     -4626.349071  Gnorm:      0.000295  CPU:    0.873
  ** Hessian has required structure


  **** Optimisation achieved ****


  Final energy =   -4626.34907126 eV      
  Final Gnorm  =       0.00005886

  Components of energy : 

--------------------------------------------------------------------------------
  Interatomic potentials     =        1257.51497733 eV    
  Three-body potentials      =           1.00442222 eV    
  Monopole - monopole (real) =       -3876.03174100 eV    
  Monopole - monopole (recip)=       -2008.83672981 eV    
  Monopole - monopole (total)=       -5884.86847081 eV    
--------------------------------------------------------------------------------
  Total lattice energy       =       -4626.34907126 eV    
--------------------------------------------------------------------------------
  Total lattice energy       =         -446371.9652 kJ/(mole unit cells)
--------------------------------------------------------------------------------

  Final fractional coordinates of atoms :

--------------------------------------------------------------------------------
   No.  Atomic        x           y          z          Radius
        Label       (Frac)      (Frac)     (Frac)       (Angs) 
--------------------------------------------------------------------------------
     1  Si    c     0.885147    0.607097    0.374007    0.000000
     2  Si    c     0.602044    0.610383    0.496224    0.000000
     3  Si    c     0.605223    0.607984    0.115062    0.000000
     4  Si    c     0.704701    0.704324    0.301779    0.000000
     5  O     c     0.818313    0.682680    0.311447    0.000000
     6  O     c     0.671836    0.672552    0.187798    0.000000
     7  O     c     0.336880    0.348218    0.391400    0.000000
     8  O     c     0.860616    0.496140    0.343094    0.000000
     9  O     c     0.613924    0.863469    0.496224    0.000000
    10  O     c     0.494656    0.625651    0.145223    0.000000
    11  O     c     0.994656    0.631462    0.344337    0.000000
    12  O     c     0.624271    0.639325    0.996224    0.000000
    13  O     c     0.387254    0.496140    0.496224    0.000000
    14  Si    c     0.104166    0.385183    0.374007    0.000000
    15  Si    c     0.387268    0.381896    0.496224    0.000000
    16  Si    c     0.384090    0.384296    0.115062    0.000000
    17  Si    c     0.284611    0.287955    0.301779    0.000000
    18  O     c     0.171000    0.309600    0.311447    0.000000
    19  O     c     0.317476    0.319728    0.187798    0.000000
    20  O     c     0.652433    0.644062    0.391400    0.000000
    21  O     c     0.128696    0.496140    0.343094    0.000000
    22  O     c     0.375389    0.128811    0.496224    0.000000
    23  O     c     0.494656    0.366628    0.145223    0.000000
    24  O     c     0.994656    0.360817    0.344337    0.000000
    25  O     c     0.365041    0.352955    0.996224    0.000000
    26  O     c     0.602058    0.496140    0.496224    0.000000
    27  Si    c     0.104166    0.607097    0.618440    0.000000
    28  Si    c     0.387268    0.610383    0.496224    0.000000
    29  Si    c     0.384090    0.607984    0.877386    0.000000
    30  Si    c     0.284611    0.704324    0.690668    0.000000
    31  O     c     0.171000    0.682680    0.681000    0.000000
    32  O     c     0.317476    0.672552    0.804650    0.000000
    33  O     c     0.652433    0.348218    0.601047    0.000000
    34  O     c     0.128696    0.496140    0.649353    0.000000
    35  O     c     0.375389    0.863469    0.496224    0.000000
    36  O     c     0.494656    0.625651    0.847225    0.000000
    37  O     c     0.994656    0.631462    0.648111    0.000000
    38  O     c     0.365041    0.639325    0.996224    0.000000
    39  Si    c     0.104166    0.607097    0.374007    0.000000
    40  Si    c     0.384090    0.607984    0.115062    0.000000
    41  Si    c     0.284611    0.704324    0.301779    0.000000
    42  O     c     0.171000    0.682680    0.311447    0.000000
    43  O     c     0.317476    0.672552    0.187798    0.000000
    44  O     c     0.652433    0.348218    0.391400    0.000000
    45  Si    c     0.385029    0.106658    0.618157    0.000000
    46  Si    c     0.384090    0.384296    0.877386    0.000000
    47  Si    c     0.284611    0.287955    0.690668    0.000000
    48  O     c     0.309782    0.174439    0.679137    0.000000
    49  O     c     0.317476    0.319728    0.804650    0.000000
    50  O     c     0.652433    0.644062    0.601047    0.000000
    51  O     c     0.494656    0.127149    0.654093    0.000000
    52  O     c     0.121687    0.370972    0.496224    0.000000
    53  O     c     0.357323    0.496140    0.861235    0.000000
    54  O     c     0.356973    0.996140    0.642937    0.000000
    55  O     c     0.494656    0.653207    0.496224    0.000000
    56  Si    c     0.385029    0.106658    0.374290    0.000000
    57  O     c     0.309782    0.174439    0.313311    0.000000
    58  O     c     0.494656    0.127149    0.338354    0.000000
    59  O     c     0.357323    0.496140    0.131212    0.000000
    60  O     c     0.356973    0.996140    0.349511    0.000000
    61  Si    c     0.385029    0.885622    0.618157    0.000000
    62  O     c     0.309782    0.817840    0.679137    0.000000
    63  O     c     0.494656    0.865130    0.654093    0.000000
    64  O     c     0.121687    0.621308    0.496224    0.000000
    65  O     c     0.494656    0.339072    0.496224    0.000000
    66  Si    c     0.385029    0.885622    0.374290    0.000000
    67  O     c     0.309782    0.817840    0.313311    0.000000
    68  O     c     0.494656    0.865130    0.338354    0.000000
    69  Si    c     0.604284    0.106658    0.618157    0.000000
    70  Si    c     0.602044    0.381896    0.496224    0.000000
    71  Si    c     0.605223    0.384296    0.877386    0.000000
    72  Si    c     0.704701    0.287955    0.690668    0.000000
    73  O     c     0.679530    0.174439    0.679137    0.000000
    74  O     c     0.671836    0.319728    0.804650    0.000000
    75  O     c     0.336880    0.644062    0.601047    0.000000
    76  O     c     0.867626    0.370972    0.496224    0.000000
    77  O     c     0.631990    0.496140    0.861235    0.000000
    78  O     c     0.632340    0.996140    0.642937    0.000000
    79  O     c     0.624271    0.352955    0.996224    0.000000
    80  Si    c     0.604284    0.106658    0.374290    0.000000
    81  Si    c     0.605223    0.384296    0.115062    0.000000
    82  Si    c     0.704701    0.287955    0.301779    0.000000
    83  O     c     0.679530    0.174439    0.313311    0.000000
    84  O     c     0.671836    0.319728    0.187798    0.000000
    85  O     c     0.336880    0.644062    0.391400    0.000000
    86  O     c     0.631990    0.496140    0.131212    0.000000
    87  O     c     0.632340    0.996140    0.349511    0.000000
    88  Si    c     0.604284    0.885622    0.618157    0.000000
    89  Si    c     0.605223    0.607984    0.877386    0.000000
    90  Si    c     0.704701    0.704324    0.690668    0.000000
    91  O     c     0.679530    0.817840    0.679137    0.000000
    92  O     c     0.671836    0.672552    0.804650    0.000000
    93  O     c     0.336880    0.348218    0.601047    0.000000
    94  O     c     0.867626    0.621308    0.496224    0.000000
    95  Si    c     0.604284    0.885622    0.374290    0.000000
    96  O     c     0.679530    0.817840    0.313311    0.000000
    97  Si    c     0.885147    0.385183    0.618440    0.000000
    98  O     c     0.818313    0.309600    0.681000    0.000000
    99  O     c     0.860616    0.496140    0.649353    0.000000
   100  O     c     0.613924    0.128811    0.496224    0.000000
   101  O     c     0.494656    0.366628    0.847225    0.000000
   102  O     c     0.994656    0.360817    0.648111    0.000000
   103  Si    c     0.885147    0.385183    0.374007    0.000000
   104  O     c     0.818313    0.309600    0.311447    0.000000
   105  Si    c     0.885147    0.607097    0.618440    0.000000
   106  O     c     0.818313    0.682680    0.681000    0.000000
   107  Si    c     0.104166    0.385183    0.618440    0.000000
   108  O     c     0.171000    0.309600    0.681000    0.000000
   109  O     s     0.813283    0.676812    0.317219    0.000000
   110  O     s     0.667805    0.668643    0.192405    0.000000
   111  O     s     0.336780    0.345245    0.393476    0.000000
   112  O     s     0.865778    0.496140    0.349610    0.000000
   113  O     s     0.611754    0.868391    0.496224    0.000000
   114  O     s     0.494656    0.621743    0.138578    0.000000
   115  O     s     0.994656    0.626012    0.350922    0.000000
   116  O     s     0.620038    0.632398    0.996224    0.000000
   117  O     s     0.387321    0.496140    0.496224    0.000000
   118  O     s     0.176029    0.315468    0.317219    0.000000
   119  O     s     0.321508    0.323637    0.192405    0.000000
   120  O     s     0.652532    0.647034    0.393476    0.000000
   121  O     s     0.123535    0.496140    0.349610    0.000000
   122  O     s     0.377558    0.123888    0.496224    0.000000
   123  O     s     0.494656    0.370537    0.138578    0.000000
   124  O     s     0.994656    0.366268    0.350922    0.000000
   125  O     s     0.369274    0.359882    0.996224    0.000000
   126  O     s     0.601991    0.496140    0.496224    0.000000
   127  O     s     0.176029    0.676812    0.675228    0.000000
   128  O     s     0.321508    0.668643    0.800043    0.000000
   129  O     s     0.652532    0.345245    0.598972    0.000000
   130  O     s     0.123535    0.496140    0.642837    0.000000
   131  O     s     0.377558    0.868391    0.496224    0.000000
   132  O     s     0.494656    0.621743    0.853869    0.000000
   133  O     s     0.994656    0.626012    0.641525    0.000000
   134  O     s     0.369274    0.632398    0.996224    0.000000
   135  O     s     0.176029    0.676812    0.317219    0.000000
   136  O     s     0.321508    0.668643    0.192405    0.000000
   137  O     s     0.652532    0.345245    0.393476    0.000000
   138  O     s     0.315341    0.179323    0.673648    0.000000
   139  O     s     0.321508    0.323637    0.800043    0.000000
   140  O     s     0.652532    0.647034    0.598972    0.000000
   141  O     s     0.494656    0.122829    0.646537    0.000000
   142  O     s     0.117747    0.374196    0.496224    0.000000
   143  O     s     0.363337    0.496140    0.864873    0.000000
   144  O     s     0.363246    0.996140    0.637434    0.000000
   145  O     s     0.494656    0.643897    0.496224    0.000000
   146  O     s     0.315341    0.179323    0.318799    0.000000
   147  O     s     0.494656    0.122829    0.345910    0.000000
   148  O     s     0.363337    0.496140    0.127574    0.000000
   149  O     s     0.363246    0.996140    0.355013    0.000000
   150  O     s     0.315341    0.812957    0.673648    0.000000
   151  O     s     0.494656    0.869451    0.646537    0.000000
   152  O     s     0.117747    0.618084    0.496224    0.000000
   153  O     s     0.494656    0.348382    0.496224    0.000000
   154  O     s     0.315341    0.812957    0.318799    0.000000
   155  O     s     0.494656    0.869451    0.345910    0.000000
   156  O     s     0.673971    0.179323    0.673648    0.000000
   157  O     s     0.667805    0.323637    0.800043    0.000000
   158  O     s     0.336780    0.647034    0.598972    0.000000
   159  O     s     0.871566    0.374196    0.496224    0.000000
   160  O     s     0.625976    0.496140    0.864873    0.000000
   161  O     s     0.626066    0.996140    0.637434    0.000000
   162  O     s     0.620038    0.359882    0.996224    0.000000
   163  O     s     0.673971    0.179323    0.318799    0.000000
   164  O     s     0.667805    0.323637    0.192405    0.000000
   165  O     s     0.336780    0.647034    0.393476    0.000000
   166  O     s     0.625976    0.496140    0.127574    0.000000
   167  O     s     0.626066    0.996140    0.355013    0.000000
   168  O     s     0.673971    0.812957    0.673648    0.000000
   169  O     s     0.667805    0.668643    0.800043    0.000000
   170  O     s     0.336780    0.345245    0.598972    0.000000
   171  O     s     0.871566    0.618084    0.496224    0.000000
   172  O     s     0.673971    0.812957    0.318799    0.000000
   173  O     s     0.813283    0.315468    0.675228    0.000000
   174  O     s     0.865778    0.496140    0.642837    0.000000
   175  O     s     0.611754    0.123888    0.496224    0.000000
   176  O     s     0.494656    0.370537    0.853869    0.000000
   177  O     s     0.994656    0.366268    0.641525    0.000000
   178  O     s     0.813283    0.315468    0.317219    0.000000
   179  O     s     0.813283    0.676812    0.675228    0.000000
   180  O     s     0.176029    0.315468    0.675228    0.000000
--------------------------------------------------------------------------------

  Final Cartesian lattice vectors (Angstroms) :

       13.914700    0.000000    0.000000
       -0.000000   13.799590   -0.000000
        0.000000    0.000000   12.835326


  Final cell parameters and derivatives :

--------------------------------------------------------------------------------
       a           13.914700 Angstrom     dE/de1(xx)    -0.000190 eV/strain
       b           13.799590 Angstrom     dE/de2(yy)     0.000878 eV/strain
       c           12.835326 Angstrom     dE/de3(zz)     0.000815 eV/strain
       alpha       90.000000 Degrees      dE/de4(yz)     0.000004 eV/strain
       beta        90.000000 Degrees      dE/de5(xz)    -0.000002 eV/strain
       gamma       90.000000 Degrees      dE/de6(xy)     0.000000 eV/strain
--------------------------------------------------------------------------------

  Primitive cell volume =          2464.602924 Angs**3

  Density of cell =      1.457517 g/cm**3

  Non-primitive cell volume =          2464.602924 Angs**3


  Final internal derivatives :

--------------------------------------------------------------------------------
   No.  Atomic          a             b             c           Radius
        Label          (eV)          (eV)          (eV)        (eV/Angs)
--------------------------------------------------------------------------------
      1 Si    c      -0.000403      0.001423     -0.002405      0.000000
      2 Si    c       0.000024      0.001224      0.000003      0.000000
      3 Si    c       0.000979      0.002118      0.001045      0.000000
      4 Si    c       0.000837      0.000999     -0.001539      0.000000
      5 O     c       0.001214      0.001290     -0.001248      0.000000
      6 O     c       0.000651      0.000873     -0.001253      0.000000
      7 O     c      -0.000058      0.000515     -0.000719      0.000000
      8 O     c      -0.000809     -0.000001     -0.001787      0.000000
      9 O     c       0.000589     -0.001166     -0.000000      0.000000
     10 O     c       0.000000      0.000910      0.001329      0.000000
     11 O     c       0.000001      0.001715     -0.002321      0.000000
     12 O     c       0.000906      0.002063      0.000000      0.000000
     13 O     c       0.000030     -0.000000     -0.000001      0.000000
     14 Si    c       0.000410     -0.001420     -0.002395      0.000000
     15 Si    c      -0.000029     -0.001222     -0.000005      0.000000
     16 Si    c      -0.000981     -0.002117      0.001047      0.000000
     17 Si    c      -0.000838     -0.000996     -0.001536      0.000000
     18 O     c      -0.001213     -0.001288     -0.001247      0.000000
     19 O     c      -0.000652     -0.000874     -0.001253      0.000000
     20 O     c       0.000055     -0.000516     -0.000718      0.000000
     21 O     c       0.000809     -0.000004     -0.001783      0.000000
     22 O     c      -0.000594      0.001167     -0.000001      0.000000
     23 O     c       0.000000     -0.000910      0.001330      0.000000
     24 O     c       0.000003     -0.001713     -0.002323      0.000000
     25 O     c      -0.000909     -0.002064      0.000003      0.000000
     26 O     c      -0.000032      0.000003      0.000001      0.000000
     27 Si    c       0.000412      0.001403      0.002408      0.000000
     28 Si    c      -0.000027      0.001225      0.000003      0.000000
     29 Si    c      -0.000979      0.002118     -0.001047      0.000000
     30 Si    c      -0.000839      0.000994      0.001537      0.000000
     31 O     c      -0.001216      0.001286      0.001245      0.000000
     32 O     c      -0.000652      0.000874      0.001251      0.000000
     33 O     c       0.000052      0.000518      0.000718      0.000000
     34 O     c       0.000825      0.000003      0.001783      0.000000
     35 O     c      -0.000590     -0.001165     -0.000000      0.000000
     36 O     c       0.000001      0.000911     -0.001330      0.000000
     37 O     c       0.000004      0.001716      0.002320      0.000000
     38 O     c      -0.000906      0.002064      0.000001      0.000000
     39 Si    c       0.000404      0.001421     -0.002403      0.000000
     40 Si    c      -0.000980      0.002118      0.001045      0.000000
     41 Si    c      -0.000837      0.000997     -0.001538      0.000000
     42 O     c      -0.001215      0.001289     -0.001247      0.000000
     43 O     c      -0.000652      0.000873     -0.001253      0.000000
     44 O     c       0.000056      0.000516     -0.000721      0.000000
     45 Si    c      -0.001427      0.000503      0.001949      0.000000
     46 Si    c      -0.000972     -0.002104     -0.001035      0.000000
     47 Si    c      -0.000851     -0.000988      0.001532      0.000000
     48 O     c      -0.000970     -0.001244      0.001299      0.000000
     49 O     c      -0.000656     -0.000883      0.001249      0.000000
     50 O     c       0.000053     -0.000517      0.000717      0.000000
     51 O     c       0.000005      0.001070      0.001875      0.000000
     52 O     c       0.001089     -0.001024      0.000004      0.000000
     53 O     c      -0.001240      0.000001     -0.001017      0.000000
     54 O     c      -0.001342     -0.000002      0.001525      0.000000
     55 O     c       0.000002      0.002516      0.000001      0.000000
     56 Si    c      -0.001441      0.000518     -0.001964      0.000000
     57 O     c      -0.000965     -0.001254     -0.001294      0.000000
     58 O     c      -0.000001      0.001069     -0.001875      0.000000
     59 O     c      -0.001238     -0.000000      0.001017      0.000000
     60 O     c      -0.001338      0.000000     -0.001525      0.000000
     61 Si    c      -0.001440     -0.000522      0.001963      0.000000
     62 O     c      -0.000965      0.001255      0.001295      0.000000
     63 O     c       0.000001     -0.001070      0.001875      0.000000
     64 O     c       0.001078      0.001019      0.000005      0.000000
     65 O     c       0.000004     -0.002517     -0.000002      0.000000
     66 Si    c      -0.001440     -0.000517     -0.001963      0.000000
     67 O     c      -0.000965      0.001255     -0.001295      0.000000
     68 O     c       0.000000     -0.001069     -0.001875      0.000000
     69 Si    c       0.001442      0.000518      0.001963      0.000000
     70 Si    c       0.000026     -0.001225      0.000004      0.000000
     71 Si    c       0.000980     -0.002116     -0.001046      0.000000
     72 Si    c       0.000838     -0.000994      0.001538      0.000000
     73 O     c       0.000962     -0.001253      0.001295      0.000000
     74 O     c       0.000651     -0.000874      0.001251      0.000000
     75 O     c      -0.000054     -0.000518      0.000718      0.000000
     76 O     c      -0.001081     -0.001019      0.000004      0.000000
     77 O     c       0.001237      0.000002     -0.001017      0.000000
     78 O     c       0.001337     -0.000002      0.001525      0.000000
     79 O     c       0.000906     -0.002063      0.000001      0.000000
     80 Si    c       0.001439      0.000516     -0.001964      0.000000
     81 Si    c       0.000980     -0.002118      0.001045      0.000000
     82 Si    c       0.000836     -0.000998     -0.001540      0.000000
     83 O     c       0.000964     -0.001255     -0.001295      0.000000
     84 O     c       0.000651     -0.000874     -0.001253      0.000000
     85 O     c      -0.000056     -0.000516     -0.000719      0.000000
     86 O     c       0.001237      0.000000      0.001016      0.000000
     87 O     c       0.001337     -0.000001     -0.001525      0.000000
     88 Si    c       0.001439     -0.000519      0.001963      0.000000
     89 Si    c       0.000979      0.002117     -0.001046      0.000000
     90 Si    c       0.000837      0.000997      0.001539      0.000000
     91 O     c       0.000964      0.001253      0.001295      0.000000
     92 O     c       0.000651      0.000874      0.001252      0.000000
     93 O     c      -0.000064      0.000509      0.000722      0.000000
     94 O     c      -0.001076      0.001022      0.000001      0.000000
     95 Si    c       0.001439     -0.000517     -0.001963      0.000000
     96 O     c       0.000965      0.001254     -0.001295      0.000000
     97 Si    c      -0.000384     -0.001423      0.002413      0.000000
     98 O     c       0.001212     -0.001285      0.001247      0.000000
     99 O     c      -0.000810     -0.000005      0.001785      0.000000
    100 O     c       0.000589      0.001165     -0.000001      0.000000
    101 O     c       0.000007     -0.000909     -0.001330      0.000000
    102 O     c      -0.000023     -0.001713      0.002330      0.000000
    103 Si    c      -0.000403     -0.001420     -0.002407      0.000000
    104 O     c       0.001215     -0.001289     -0.001248      0.000000
    105 Si    c      -0.000403      0.001421      0.002406      0.000000
    106 O     c       0.001214      0.001289      0.001248      0.000000
    107 Si    c       0.000407     -0.001403      0.002401      0.000000
    108 O     c       0.000000      0.000000      0.000000      0.000000
    109 O     s      -0.001930     -0.002238      0.002082      0.000000
    110 O     s      -0.001449     -0.001790      0.001817      0.000000
    111 O     s      -0.000440     -0.000820      0.000543      0.000000
    112 O     s       0.000243      0.000001      0.002576      0.000000
    113 O     s      -0.001166      0.001637     -0.000000      0.000000
    114 O     s      -0.000000     -0.001777     -0.001744      0.000000
    115 O     s      -0.000001     -0.002472      0.002745      0.000000
    116 O     s      -0.001557     -0.002797      0.000000      0.000000
    117 O     s       0.000652     -0.000002      0.000001      0.000000
    118 O     s       0.001928      0.002234      0.002080      0.000000
    119 O     s       0.001450      0.001790      0.001816      0.000000
    120 O     s       0.000446      0.000820      0.000545      0.000000
    121 O     s      -0.000244      0.000004      0.002572      0.000000
    122 O     s       0.001174     -0.001639      0.000004      0.000000
    123 O     s      -0.000001      0.001778     -0.001746      0.000000
    124 O     s      -0.000003      0.002467      0.002744      0.000000
    125 O     s       0.001562      0.002797     -0.000003      0.000000
    126 O     s      -0.000648     -0.000000     -0.000001      0.000000
    127 O     s       0.001929     -0.002234     -0.002079      0.000000
    128 O     s       0.001448     -0.001788     -0.001814      0.000000
    129 O     s       0.000446     -0.000823     -0.000547      0.000000
    130 O     s      -0.000259     -0.000009     -0.002570      0.000000
    131 O     s       0.001168      0.001637      0.000000      0.000000
    132 O     s      -0.000001     -0.001778      0.001747      0.000000
    133 O     s      -0.000003     -0.002474     -0.002743      0.000000
    134 O     s       0.001558     -0.002798      0.000000      0.000000
    135 O     s       0.001929     -0.002236      0.002081      0.000000
    136 O     s       0.001450     -0.001789      0.001816      0.000000
    137 O     s       0.000447     -0.000821      0.000546      0.000000
    138 O     s       0.001754      0.001689     -0.002324      0.000000
    139 O     s       0.001465      0.001792     -0.001808      0.000000
    140 O     s       0.000446      0.000822     -0.000547      0.000000
    141 O     s      -0.000007     -0.001335     -0.003078      0.000000
    142 O     s      -0.000999      0.001188      0.000000      0.000000
    143 O     s       0.001598     -0.000004      0.001315      0.000000
    144 O     s       0.002171      0.000003     -0.002745      0.000000
    145 O     s       0.000001     -0.002273     -0.000002      0.000000
    146 O     s       0.001737      0.001707      0.002328      0.000000
    147 O     s       0.000000     -0.001334      0.003079      0.000000
    148 O     s       0.001596     -0.000001     -0.001315      0.000000
    149 O     s       0.002167      0.000000      0.002746      0.000000
    150 O     s       0.001737     -0.001707     -0.002330      0.000000
    151 O     s      -0.000001      0.001337     -0.003078      0.000000
    152 O     s      -0.000985     -0.001190     -0.000006      0.000000
    153 O     s      -0.000003      0.002274      0.000002      0.000000
    154 O     s       0.001737     -0.001708      0.002329      0.000000
    155 O     s      -0.000000      0.001334      0.003078      0.000000
    156 O     s      -0.001734      0.001705     -0.002330      0.000000
    157 O     s      -0.001447      0.001789     -0.001813      0.000000
    158 O     s      -0.000444      0.000823     -0.000545      0.000000
    159 O     s       0.000987      0.001190     -0.000005      0.000000
    160 O     s      -0.001594     -0.000001      0.001316      0.000000
    161 O     s      -0.002166      0.000002     -0.002746      0.000000
    162 O     s      -0.001558      0.002796     -0.000000      0.000000
    163 O     s      -0.001735      0.001708      0.002331      0.000000
    164 O     s      -0.001448      0.001790      0.001816      0.000000
    165 O     s      -0.000444      0.000822      0.000544      0.000000
    166 O     s      -0.001593     -0.000000     -0.001314      0.000000
    167 O     s      -0.002165      0.000001      0.002746      0.000000
    168 O     s      -0.001735     -0.001707     -0.002330      0.000000
    169 O     s      -0.001447     -0.001789     -0.001815      0.000000
    170 O     s      -0.000423     -0.000817     -0.000542      0.000000
    171 O     s       0.000982     -0.001197     -0.000002      0.000000
    172 O     s      -0.001736     -0.001708      0.002330      0.000000
    173 O     s      -0.001927      0.002230     -0.002080      0.000000
    174 O     s       0.000243      0.000006     -0.002574      0.000000
    175 O     s      -0.001167     -0.001636      0.000001      0.000000
    176 O     s      -0.000008      0.001775      0.001745      0.000000
    177 O     s       0.000025      0.002462     -0.002748      0.000000
    178 O     s      -0.001929      0.002236      0.002083      0.000000
    179 O     s      -0.001929     -0.002236     -0.002082      0.000000
    180 O     s       0.001919      0.002252     -0.002097      0.000000
--------------------------------------------------------------------------------
  Maximum abs         0.002171      0.002798      0.003079      0.000000
--------------------------------------------------------------------------------


  Time to end of optimisation =       0.9157 seconds


  Peak dynamic memory used =       3.43 MB 


  Timing analysis for GULP :

--------------------------------------------------------------------------------
  Task / Subroutine                                          Time (Seconds)
--------------------------------------------------------------------------------
  Calculation of reciprocal space energy and derivatives          0.0732
  Calculation of real space energy and derivatives                0.4673
  Calculation of three-body energy and derivatives                0.0520
  Calculation and manipulation of Hessian matrix                  0.1864
  Calculation of matrix inversion                                 0.0403
  Global summation overhead                                       0.0936
--------------------------------------------------------------------------------
  Total CPU time                                                  0.9157
--------------------------------------------------------------------------------


  Dump file written as ReferenceDataBase/NUD-3.grs
  CIF file written as ReferenceDataBase/NUD-3_opt.cif


  Job Finished at 14:14.43 20th April      2023                               

