********************************************************************************
*                       GENERAL UTILITY LATTICE PROGRAM                        *
*                                 Julian Gale                                  *
*                       Curtin Institute for Computation                       *
*                    School of Molecular and Life Sciences                     *
*                    Curtin University, Western Australia                      *
********************************************************************************
* Version = 6.1.2 * Last modified =   3rd November 2022                        *
********************************************************************************
*  optimise     - perform optimisation run                                     *
*  conp         - constant pressure calculation                                *
*  nosymmetry   - turn off symmetry after initial structure generation         *
********************************************************************************

  Job Started  at 13:05.10 20th April      2023                               

  Number of CPUs =     8


  Total number of configurations input =      1

********************************************************************************
*  Input for Configuration =   1 : ReferenceDataBase/PST-31                    *
********************************************************************************

  Formula = Si48O96                                                     

  Number of irreducible atoms/shells =     240


  Total number atoms/shells =     240

  Dimensionality = 3               :  Bulk   



  Cartesian lattice vectors (Angstroms) :

       13.822200    0.000000    0.000000
        0.000000   14.379700    0.000000
      -10.863312    0.000000   13.428486

  Cell parameters (Angstroms/Degrees):

  a =      13.8222    alpha =  90.0000
  b =      14.3797    beta  = 128.9720
  c =      17.2724    gamma =  90.0000

  Initial cell volume =        2669.033713 Angs**3

  Temperature of configuration =   0.00     K 

  Pressure of configuration =         0.000 GPa 

  Fractional coordinates of asymmetric unit :

--------------------------------------------------------------------------------
   No.  Atomic       x           y          z         Charge      Occupancy
        Label      (Frac)      (Frac)     (Frac)        (e)         (Frac)  
--------------------------------------------------------------------------------
      1 Si    c    0.328210 *  0.436290 *  0.047320 *   4.00000    1.000000    
      2 Si    c    0.671790 *  0.936290 *  0.452680 *   4.00000    1.000000    
      3 Si    c    0.671790 *  0.563710 *  0.952680 *   4.00000    1.000000    
      4 Si    c    0.328210 *  0.063710 *  0.547320 *   4.00000    1.000000    
      5 Si    c    0.598800 *  0.109140 *  0.330210 *   4.00000    1.000000    
      6 Si    c    0.401200 *  0.609140 *  0.169790 *   4.00000    1.000000    
      7 Si    c    0.401200 *  0.890860 *  0.669790 *   4.00000    1.000000    
      8 Si    c    0.598800 *  0.390860 *  0.830210 *   4.00000    1.000000    
      9 Si    c    0.437930 *  0.099540 *  0.102810 *   4.00000    1.000000    
     10 Si    c    0.562070 *  0.599540 *  0.397190 *   4.00000    1.000000    
     11 Si    c    0.562070 *  0.900460 *  0.897190 *   4.00000    1.000000    
     12 Si    c    0.437930 *  0.400460 *  0.602810 *   4.00000    1.000000    
     13 Si    c    0.285980 *  0.582300 *  0.500440 *   4.00000    1.000000    
     14 Si    c    0.714020 *  0.082300 *  0.999560 *   4.00000    1.000000    
     15 Si    c    0.714020 *  0.417700 *  0.499560 *   4.00000    1.000000    
     16 Si    c    0.285980 *  0.917700 *  0.000440 *   4.00000    1.000000    
     17 Si    c    0.270110 *  0.797870 *  0.144200 *   4.00000    1.000000    
     18 Si    c    0.729890 *  0.297870 *  0.355800 *   4.00000    1.000000    
     19 Si    c    0.729890 *  0.202130 *  0.855800 *   4.00000    1.000000    
     20 Si    c    0.270110 *  0.702130 *  0.644200 *   4.00000    1.000000    
     21 Si    c    0.605190 *  0.379360 *  0.141510 *   4.00000    1.000000    
     22 Si    c    0.394810 *  0.879360 *  0.358490 *   4.00000    1.000000    
     23 Si    c    0.394810 *  0.620640 *  0.858490 *   4.00000    1.000000    
     24 Si    c    0.605190 *  0.120640 *  0.641510 *   4.00000    1.000000    
     25 Si    c    0.230280 *  0.052280 *  0.329740 *   4.00000    1.000000    
     26 Si    c    0.769720 *  0.552280 *  0.170260 *   4.00000    1.000000    
     27 Si    c    0.769720 *  0.947720 *  0.670260 *   4.00000    1.000000    
     28 Si    c    0.230280 *  0.447720 *  0.829740 *   4.00000    1.000000    
     29 Si    c    0.382410 *  0.205480 *  0.316120 *   4.00000    1.000000    
     30 Si    c    0.617590 *  0.705480 *  0.183880 *   4.00000    1.000000    
     31 Si    c    0.617590 *  0.794520 *  0.683880 *   4.00000    1.000000    
     32 Si    c    0.382410 *  0.294520 *  0.816120 *   4.00000    1.000000    
     33 Si    c    0.260640 *  0.248570 *  0.097110 *   4.00000    1.000000    
     34 Si    c    0.739360 *  0.748570 *  0.402890 *   4.00000    1.000000    
     35 Si    c    0.739360 *  0.751430 *  0.902890 *   4.00000    1.000000    
     36 Si    c    0.260640 *  0.251430 *  0.597110 *   4.00000    1.000000    
     37 Si    c    0.007570 *  0.349270 *  0.478120 *   4.00000    1.000000    
     38 Si    c    0.992430 *  0.849270 *  0.021880 *   4.00000    1.000000    
     39 Si    c    0.992430 *  0.650730 *  0.521880 *   4.00000    1.000000    
     40 Si    c    0.007570 *  0.150730 *  0.978120 *   4.00000    1.000000    
     41 Si    c    0.011720 *  0.529510 *  0.378860 *   4.00000    1.000000    
     42 Si    c    0.988280 *  0.029510 *  0.121140 *   4.00000    1.000000    
     43 Si    c    0.988280 *  0.470490 *  0.621140 *   4.00000    1.000000    
     44 Si    c    0.011720 *  0.970490 *  0.878860 *   4.00000    1.000000    
     45 Si    c    0.554340 *  0.206820 *  0.017360 *   4.00000    1.000000    
     46 Si    c    0.445660 *  0.706820 *  0.482640 *   4.00000    1.000000    
     47 Si    c    0.445660 *  0.793180 *  0.982640 *   4.00000    1.000000    
     48 Si    c    0.554340 *  0.293180 *  0.517360 *   4.00000    1.000000    
     49 O     c    0.316390 *  0.527900 *  0.092700 *   0.86902    1.000000    
     50 O     c    0.683610 *  0.027900 *  0.407300 *   0.86902    1.000000    
     51 O     c    0.683610 *  0.472100 *  0.907300 *   0.86902    1.000000    
     52 O     c    0.316390 *  0.972100 *  0.592700 *   0.86902    1.000000    
     53 O     c    0.471280 *  0.423420 *  0.093550 *   0.86902    1.000000    
     54 O     c    0.528720 *  0.923420 *  0.406450 *   0.86902    1.000000    
     55 O     c    0.528720 *  0.576580 *  0.906450 *   0.86902    1.000000    
     56 O     c    0.471280 *  0.076580 *  0.593550 *   0.86902    1.000000    
     57 O     c    0.243800 *  0.054540 *  0.428950 *   0.86902    1.000000    
     58 O     c    0.756200 *  0.554540 *  0.071050 *   0.86902    1.000000    
     59 O     c    0.756200 *  0.945460 *  0.571050 *   0.86902    1.000000    
     60 O     c    0.243800 *  0.445460 *  0.928950 *   0.86902    1.000000    
     61 O     c    0.283750 *  0.348650 *  0.072860 *   0.86902    1.000000    
     62 O     c    0.716250 *  0.848650 *  0.427140 *   0.86902    1.000000    
     63 O     c    0.716250 *  0.651350 *  0.927140 *   0.86902    1.000000    
     64 O     c    0.283750 *  0.151350 *  0.572860 *   0.86902    1.000000    
     65 O     c    0.538910 *  0.074570 *  0.219620 *   0.86902    1.000000    
     66 O     c    0.461090 *  0.574570 *  0.280380 *   0.86902    1.000000    
     67 O     c    0.461090 *  0.925430 *  0.780380 *   0.86902    1.000000    
     68 O     c    0.538910 *  0.425430 *  0.719620 *   0.86902    1.000000    
     69 O     c    0.313000 *  0.696820 *  0.139130 *   0.86902    1.000000    
     70 O     c    0.687000 *  0.196820 *  0.360870 *   0.86902    1.000000    
     71 O     c    0.687000 *  0.303180 *  0.860870 *   0.86902    1.000000    
     72 O     c    0.313000 *  0.803180 *  0.639130 *   0.86902    1.000000    
     73 O     c    0.489610 *  0.138030 *  0.334760 *   0.86902    1.000000    
     74 O     c    0.510390 *  0.638030 *  0.165240 *   0.86902    1.000000    
     75 O     c    0.510390 *  0.861970 *  0.665240 *   0.86902    1.000000    
     76 O     c    0.489610 *  0.361970 *  0.834760 *   0.86902    1.000000    
     77 O     c    0.373510 *  0.007380 *  0.039720 *   0.86902    1.000000    
     78 O     c    0.626490 *  0.507380 *  0.460280 *   0.86902    1.000000    
     79 O     c    0.626490 *  0.992620 *  0.960280 *   0.86902    1.000000    
     80 O     c    0.373510 *  0.492620 *  0.539720 *   0.86902    1.000000    
     81 O     c    0.336930 *  0.170910 *  0.087690 *   0.86902    1.000000    
     82 O     c    0.663070 *  0.670910 *  0.412310 *   0.86902    1.000000    
     83 O     c    0.663070 *  0.829090 *  0.912310 *   0.86902    1.000000    
     84 O     c    0.336930 *  0.329090 *  0.587690 *   0.86902    1.000000    
     85 O     c    0.506680 *  0.149370 *  0.066470 *   0.86902    1.000000    
     86 O     c    0.493320 *  0.649370 *  0.433530 *   0.86902    1.000000    
     87 O     c    0.493320 *  0.850630 *  0.933530 *   0.86902    1.000000    
     88 O     c    0.506680 *  0.350630 *  0.566470 *   0.86902    1.000000    
     89 O     c    0.701310 *  0.372290 *  0.408080 *   0.86902    1.000000    
     90 O     c    0.298690 *  0.872290 *  0.091920 *   0.86902    1.000000    
     91 O     c    0.298690 *  0.627710 *  0.591920 *   0.86902    1.000000    
     92 O     c    0.701310 *  0.127710 *  0.908080 *   0.86902    1.000000    
     93 O     c    0.146150 *  0.552540 *  0.413590 *   0.86902    1.000000    
     94 O     c    0.853850 *  0.052540 *  0.086410 *   0.86902    1.000000    
     95 O     c    0.853850 *  0.447460 *  0.586410 *   0.86902    1.000000    
     96 O     c    0.146150 *  0.947460 *  0.913590 *   0.86902    1.000000    
     97 O     c    0.674840 *  0.157510 *  0.043360 *   0.86902    1.000000    
     98 O     c    0.325160 *  0.657510 *  0.456640 *   0.86902    1.000000    
     99 O     c    0.325160 *  0.842490 *  0.956640 *   0.86902    1.000000    
    100 O     c    0.674840 *  0.342490 *  0.543360 *   0.86902    1.000000    
    101 O     c    0.655860 *  0.325520 *  0.241120 *   0.86902    1.000000    
    102 O     c    0.344140 *  0.825520 *  0.258880 *   0.86902    1.000000    
    103 O     c    0.344140 *  0.674480 *  0.758880 *   0.86902    1.000000    
    104 O     c    0.655860 *  0.174480 *  0.741120 *   0.86902    1.000000    
    105 O     c    0.123580 *  0.795140 *  0.088940 *   0.86902    1.000000    
    106 O     c    0.876420 *  0.295140 *  0.411060 *   0.86902    1.000000    
    107 O     c    0.876420 *  0.204860 *  0.911060 *   0.86902    1.000000    
    108 O     c    0.123580 *  0.704860 *  0.588940 *   0.86902    1.000000    
    109 O     c    0.698730 *  0.462180 *  0.166780 *   0.86902    1.000000    
    110 O     c    0.301270 *  0.962180 *  0.333220 *   0.86902    1.000000    
    111 O     c    0.301270 *  0.537820 *  0.833220 *   0.86902    1.000000    
    112 O     c    0.698730 *  0.037820 *  0.666780 *   0.86902    1.000000    
    113 O     c    0.592870 *  0.310440 *  0.063340 *   0.86902    1.000000    
    114 O     c    0.407130 *  0.810440 *  0.436660 *   0.86902    1.000000    
    115 O     c    0.407130 *  0.689560 *  0.936660 *   0.86902    1.000000    
    116 O     c    0.592870 *  0.189560 *  0.563340 *   0.86902    1.000000    
    117 O     c    0.289870 *  0.143770 *  0.322140 *   0.86902    1.000000    
    118 O     c    0.710130 *  0.643770 *  0.177860 *   0.86902    1.000000    
    119 O     c    0.710130 *  0.856230 *  0.677860 *   0.86902    1.000000    
    120 O     c    0.289870 *  0.356230 *  0.822140 *   0.86902    1.000000    
    121 O     c    0.086140 *  0.043640 *  0.238180 *   0.86902    1.000000    
    122 O     c    0.913860 *  0.543640 *  0.261820 *   0.86902    1.000000    
    123 O     c    0.913860 *  0.956360 *  0.761820 *   0.86902    1.000000    
    124 O     c    0.086140 *  0.456360 *  0.738180 *   0.86902    1.000000    
    125 O     c    0.305730 *  0.251120 *  0.208730 *   0.86902    1.000000    
    126 O     c    0.694270 *  0.751120 *  0.291270 *   0.86902    1.000000    
    127 O     c    0.694270 *  0.748880 *  0.791270 *   0.86902    1.000000    
    128 O     c    0.305730 *  0.248880 *  0.708730 *   0.86902    1.000000    
    129 O     c    0.445340 *  0.285560 *  0.399090 *   0.86902    1.000000    
    130 O     c    0.554660 *  0.785560 *  0.100910 *   0.86902    1.000000    
    131 O     c    0.554660 *  0.714440 *  0.600910 *   0.86902    1.000000    
    132 O     c    0.445340 *  0.214440 *  0.899090 *   0.86902    1.000000    
    133 O     c    0.115400 *  0.225390 *  0.020880 *   0.86902    1.000000    
    134 O     c    0.884600 *  0.725390 *  0.479120 *   0.86902    1.000000    
    135 O     c    0.884600 *  0.774610 *  0.979120 *   0.86902    1.000000    
    136 O     c    0.115400 *  0.274610 *  0.520880 *   0.86902    1.000000    
    137 O     c    0.010110 *  0.423400 *  0.409100 *   0.86902    1.000000    
    138 O     c    0.989890 *  0.923400 *  0.090900 *   0.86902    1.000000    
    139 O     c    0.989890 *  0.576600 *  0.590900 *   0.86902    1.000000    
    140 O     c    0.010110 *  0.076600 *  0.909100 *   0.86902    1.000000    
    141 O     c    0.023160 *  0.097890 *  0.067410 *   0.86902    1.000000    
    142 O     c    0.976840 *  0.597890 *  0.432590 *   0.86902    1.000000    
    143 O     c    0.976840 *  0.902110 *  0.932590 *   0.86902    1.000000    
    144 O     c    0.023160    0.402110    0.567410     0.86902    1.000000    
    145 O     s    0.316390 *  0.527900 *  0.092700 *  -2.86902    1.000000    
    146 O     s    0.683610 *  0.027900 *  0.407300 *  -2.86902    1.000000    
    147 O     s    0.683610 *  0.472100 *  0.907300 *  -2.86902    1.000000    
    148 O     s    0.316390 *  0.972100 *  0.592700 *  -2.86902    1.000000    
    149 O     s    0.471280 *  0.423420 *  0.093550 *  -2.86902    1.000000    
    150 O     s    0.528720 *  0.923420 *  0.406450 *  -2.86902    1.000000    
    151 O     s    0.528720 *  0.576580 *  0.906450 *  -2.86902    1.000000    
    152 O     s    0.471280 *  0.076580 *  0.593550 *  -2.86902    1.000000    
    153 O     s    0.243800 *  0.054540 *  0.428950 *  -2.86902    1.000000    
    154 O     s    0.756200 *  0.554540 *  0.071050 *  -2.86902    1.000000    
    155 O     s    0.756200 *  0.945460 *  0.571050 *  -2.86902    1.000000    
    156 O     s    0.243800 *  0.445460 *  0.928950 *  -2.86902    1.000000    
    157 O     s    0.283750 *  0.348650 *  0.072860 *  -2.86902    1.000000    
    158 O     s    0.716250 *  0.848650 *  0.427140 *  -2.86902    1.000000    
    159 O     s    0.716250 *  0.651350 *  0.927140 *  -2.86902    1.000000    
    160 O     s    0.283750 *  0.151350 *  0.572860 *  -2.86902    1.000000    
    161 O     s    0.538910 *  0.074570 *  0.219620 *  -2.86902    1.000000    
    162 O     s    0.461090 *  0.574570 *  0.280380 *  -2.86902    1.000000    
    163 O     s    0.461090 *  0.925430 *  0.780380 *  -2.86902    1.000000    
    164 O     s    0.538910 *  0.425430 *  0.719620 *  -2.86902    1.000000    
    165 O     s    0.313000 *  0.696820 *  0.139130 *  -2.86902    1.000000    
    166 O     s    0.687000 *  0.196820 *  0.360870 *  -2.86902    1.000000    
    167 O     s    0.687000 *  0.303180 *  0.860870 *  -2.86902    1.000000    
    168 O     s    0.313000 *  0.803180 *  0.639130 *  -2.86902    1.000000    
    169 O     s    0.489610 *  0.138030 *  0.334760 *  -2.86902    1.000000    
    170 O     s    0.510390 *  0.638030 *  0.165240 *  -2.86902    1.000000    
    171 O     s    0.510390 *  0.861970 *  0.665240 *  -2.86902    1.000000    
    172 O     s    0.489610 *  0.361970 *  0.834760 *  -2.86902    1.000000    
    173 O     s    0.373510 *  0.007380 *  0.039720 *  -2.86902    1.000000    
    174 O     s    0.626490 *  0.507380 *  0.460280 *  -2.86902    1.000000    
    175 O     s    0.626490 *  0.992620 *  0.960280 *  -2.86902    1.000000    
    176 O     s    0.373510 *  0.492620 *  0.539720 *  -2.86902    1.000000    
    177 O     s    0.336930 *  0.170910 *  0.087690 *  -2.86902    1.000000    
    178 O     s    0.663070 *  0.670910 *  0.412310 *  -2.86902    1.000000    
    179 O     s    0.663070 *  0.829090 *  0.912310 *  -2.86902    1.000000    
    180 O     s    0.336930 *  0.329090 *  0.587690 *  -2.86902    1.000000    
    181 O     s    0.506680 *  0.149370 *  0.066470 *  -2.86902    1.000000    
    182 O     s    0.493320 *  0.649370 *  0.433530 *  -2.86902    1.000000    
    183 O     s    0.493320 *  0.850630 *  0.933530 *  -2.86902    1.000000    
    184 O     s    0.506680 *  0.350630 *  0.566470 *  -2.86902    1.000000    
    185 O     s    0.701310 *  0.372290 *  0.408080 *  -2.86902    1.000000    
    186 O     s    0.298690 *  0.872290 *  0.091920 *  -2.86902    1.000000    
    187 O     s    0.298690 *  0.627710 *  0.591920 *  -2.86902    1.000000    
    188 O     s    0.701310 *  0.127710 *  0.908080 *  -2.86902    1.000000    
    189 O     s    0.146150 *  0.552540 *  0.413590 *  -2.86902    1.000000    
    190 O     s    0.853850 *  0.052540 *  0.086410 *  -2.86902    1.000000    
    191 O     s    0.853850 *  0.447460 *  0.586410 *  -2.86902    1.000000    
    192 O     s    0.146150 *  0.947460 *  0.913590 *  -2.86902    1.000000    
    193 O     s    0.674840 *  0.157510 *  0.043360 *  -2.86902    1.000000    
    194 O     s    0.325160 *  0.657510 *  0.456640 *  -2.86902    1.000000    
    195 O     s    0.325160 *  0.842490 *  0.956640 *  -2.86902    1.000000    
    196 O     s    0.674840 *  0.342490 *  0.543360 *  -2.86902    1.000000    
    197 O     s    0.655860 *  0.325520 *  0.241120 *  -2.86902    1.000000    
    198 O     s    0.344140 *  0.825520 *  0.258880 *  -2.86902    1.000000    
    199 O     s    0.344140 *  0.674480 *  0.758880 *  -2.86902    1.000000    
    200 O     s    0.655860 *  0.174480 *  0.741120 *  -2.86902    1.000000    
    201 O     s    0.123580 *  0.795140 *  0.088940 *  -2.86902    1.000000    
    202 O     s    0.876420 *  0.295140 *  0.411060 *  -2.86902    1.000000    
    203 O     s    0.876420 *  0.204860 *  0.911060 *  -2.86902    1.000000    
    204 O     s    0.123580 *  0.704860 *  0.588940 *  -2.86902    1.000000    
    205 O     s    0.698730 *  0.462180 *  0.166780 *  -2.86902    1.000000    
    206 O     s    0.301270 *  0.962180 *  0.333220 *  -2.86902    1.000000    
    207 O     s    0.301270 *  0.537820 *  0.833220 *  -2.86902    1.000000    
    208 O     s    0.698730 *  0.037820 *  0.666780 *  -2.86902    1.000000    
    209 O     s    0.592870 *  0.310440 *  0.063340 *  -2.86902    1.000000    
    210 O     s    0.407130 *  0.810440 *  0.436660 *  -2.86902    1.000000    
    211 O     s    0.407130 *  0.689560 *  0.936660 *  -2.86902    1.000000    
    212 O     s    0.592870 *  0.189560 *  0.563340 *  -2.86902    1.000000    
    213 O     s    0.289870 *  0.143770 *  0.322140 *  -2.86902    1.000000    
    214 O     s    0.710130 *  0.643770 *  0.177860 *  -2.86902    1.000000    
    215 O     s    0.710130 *  0.856230 *  0.677860 *  -2.86902    1.000000    
    216 O     s    0.289870 *  0.356230 *  0.822140 *  -2.86902    1.000000    
    217 O     s    0.086140 *  0.043640 *  0.238180 *  -2.86902    1.000000    
    218 O     s    0.913860 *  0.543640 *  0.261820 *  -2.86902    1.000000    
    219 O     s    0.913860 *  0.956360 *  0.761820 *  -2.86902    1.000000    
    220 O     s    0.086140 *  0.456360 *  0.738180 *  -2.86902    1.000000    
    221 O     s    0.305730 *  0.251120 *  0.208730 *  -2.86902    1.000000    
    222 O     s    0.694270 *  0.751120 *  0.291270 *  -2.86902    1.000000    
    223 O     s    0.694270 *  0.748880 *  0.791270 *  -2.86902    1.000000    
    224 O     s    0.305730 *  0.248880 *  0.708730 *  -2.86902    1.000000    
    225 O     s    0.445340 *  0.285560 *  0.399090 *  -2.86902    1.000000    
    226 O     s    0.554660 *  0.785560 *  0.100910 *  -2.86902    1.000000    
    227 O     s    0.554660 *  0.714440 *  0.600910 *  -2.86902    1.000000    
    228 O     s    0.445340 *  0.214440 *  0.899090 *  -2.86902    1.000000    
    229 O     s    0.115400 *  0.225390 *  0.020880 *  -2.86902    1.000000    
    230 O     s    0.884600 *  0.725390 *  0.479120 *  -2.86902    1.000000    
    231 O     s    0.884600 *  0.774610 *  0.979120 *  -2.86902    1.000000    
    232 O     s    0.115400 *  0.274610 *  0.520880 *  -2.86902    1.000000    
    233 O     s    0.010110 *  0.423400 *  0.409100 *  -2.86902    1.000000    
    234 O     s    0.989890 *  0.923400 *  0.090900 *  -2.86902    1.000000    
    235 O     s    0.989890 *  0.576600 *  0.590900 *  -2.86902    1.000000    
    236 O     s    0.010110 *  0.076600 *  0.909100 *  -2.86902    1.000000    
    237 O     s    0.023160 *  0.097890 *  0.067410 *  -2.86902    1.000000    
    238 O     s    0.976840 *  0.597890 *  0.432590 *  -2.86902    1.000000    
    239 O     s    0.976840 *  0.902110 *  0.932590 *  -2.86902    1.000000    
    240 O     s    0.023160 *  0.402110 *  0.567410 *  -2.86902    1.000000    
--------------------------------------------------------------------------------



********************************************************************************
*  General input information                                                   *
********************************************************************************

  Species output for all configurations : 

--------------------------------------------------------------------------------
  Species    Type    Atomic    Atomic    Charge       Radii (Angs)     Library
                     Number     Mass       (e)     Cova   Ionic  VDW   Symbol
--------------------------------------------------------------------------------
    O        Core        8      16.00   0.869020   0.730  0.000  1.360 O        
    O        Shell       8       0.00  -2.869020   0.730  0.000  0.000 O        
    Si       Core       14      28.09   4.000000   1.200  0.000  2.100 Si       
--------------------------------------------------------------------------------


  Lattice summation method               =    Ewald          (3-D)
                                         =    Parry          (2-D)
                                         =    Saunders et al (1-D)
  Accuracy factor for lattice sums       =   12.000


  Analytic derivatives to be used

  Time limit = Infinity

  Maximum range for interatomic potentials =    100000.000000 Angstroms

  General interatomic potentials :

--------------------------------------------------------------------------------
Atom  Types   Potential      Parameter       Value         Units   Cutoffs(Ang)
  1     2                                                            Min /  Max 
--------------------------------------------------------------------------------
Si   c O    s Buckingham    Buckingham A     1283.9070    eV        0.000 10.000
                            Buckingham rho  0.32052000    Ang       
                            Buckingham C     10.661580    eV*Ang^6  
--------------------------------------------------------------------------------
O    s O    s Buckingham    Buckingham A     22764.000    eV        0.000 12.000
                            Buckingham rho  0.14900000    Ang       
                            Buckingham C     27.879000    eV*Ang^6  
--------------------------------------------------------------------------------
O    c O    s Spring (c-s)  Spring k 2       74.920000    eV*Ang^-2 0.000  1.100
                            Spring k 4       0.0000000    eV*Ang^-4 
--------------------------------------------------------------------------------

  General Three-body potentials :

--------------------------------------------------------------------------------
  Atoms       Potential      Parameter       Value         Units   Cutoffs(Ang)
  1 / 2 / 3                                                          Min /  Max 
--------------------------------------------------------------------------------
Si    core    Harmonic      Three-body cnst  2.0972400    eV*rad^-2 0.000  1.900
O     shel                  Three-body angl  109.47000    degrees   0.000  1.900
O     shel                  Three-body k4    0.0000000    eV*rad^-4 0.000  3.500
                            Three-body k3    0.0000000    eV*rad^-3 
--------------------------------------------------------------------------------
Si    core    Harmonic      Three-body cnst  2.0972400    eV*rad^-2 0.000  1.900
O     shel                  Three-body angl  109.47000    degrees   0.000  1.900
õ(    shel                  Three-body k4    0.0000000    eV*rad^-4 0.000  3.500
                            Three-body k3    0.0000000    eV*rad^-3 
--------------------------------------------------------------------------------
Si    core    Harmonic      Three-body cnst  2.0972400    eV*rad^-2 0.000  1.900
õ(    shel                  Three-body angl  109.47000    degrees   0.000  1.900
õ(    shel                  Three-body k4    0.0000000    eV*rad^-4 0.000  3.500
                            Three-body k3    0.0000000    eV*rad^-3 
--------------------------------------------------------------------------------

********************************************************************************
*  Output for configuration   1 : ReferenceDataBase/PST-31                     *
********************************************************************************


  Components of energy : 

--------------------------------------------------------------------------------
  Interatomic potentials     =        1516.66722902 eV    
  Three-body potentials      =           0.08712918 eV    
  Monopole - monopole (real) =       -5755.85992053 eV    
  Monopole - monopole (recip)=       -1885.63636030 eV    
  Monopole - monopole (total)=       -7641.49628083 eV    
--------------------------------------------------------------------------------
  Total lattice energy       =       -6124.74192264 eV    
--------------------------------------------------------------------------------
  Total lattice energy       =         -590943.9703 kJ/(mole unit cells)
--------------------------------------------------------------------------------


  Number of variables =      723

  Maximum number of calculations  =           500
  Maximum Hessian update interval =            10
  Maximum step size               =   0.100000000
  Maximum parameter tolerance     =   0.000010000
  Maximum function  tolerance     =   0.000010000
  Maximum gradient  tolerance     =   0.001000000
  Maximum gradient  component     =   0.010000000

  Cell parameters to be optimised using strains

  Newton-Raphson optimiser to be used

  BFGS hessian update to be used

  General 2-D hessian to be used

  Minimiser to switch to RFO
  When gradient norm is less than     0.080000

  Switch max step size to       0.30000000 when gnorm is less than     0.005000

  Dumpfile to be written after every cycle

  Start of bulk optimisation :

  Cycle:      0 Energy:     -6124.741923  Gnorm:      3.049677  CPU:    0.157
  ** Hessian calculated **
  Cycle:      1 Energy:     -6159.978096  Gnorm:      1.041091  CPU:    0.289
  ** Hessian calculated **
  Cycle:      2 Energy:     -6166.257371  Gnorm:      0.741593  CPU:    0.589
  Cycle:      3 Energy:     -6169.640507  Gnorm:      0.308604  CPU:    0.708
  Cycle:      4 Energy:     -6170.590461  Gnorm:      0.171834  CPU:    0.827
  Cycle:      5 Energy:     -6170.929946  Gnorm:      0.127805  CPU:    0.944
  Cycle:      6 Energy:     -6171.128584  Gnorm:      0.067113  CPU:    1.061
  ** Hessian has required structure
  Cycle:      7 Energy:     -6171.198606  Gnorm:      0.096655  CPU:    1.192
  ** Hessian has required structure
  Cycle:      8 Energy:     -6171.313041  Gnorm:      0.125632  CPU:    1.334
  ** Hessian has required structure
  Cycle:      9 Energy:     -6171.371346  Gnorm:      0.130777  CPU:    1.456
  ** Hessian has required structure
  Cycle:     10 Energy:     -6171.466134  Gnorm:      0.085868  CPU:    1.603
  ** Hessian has required structure
  Cycle:     11 Energy:     -6171.489759  Gnorm:      0.102077  CPU:    1.732
  ** Hessian has wrong structure
  ** Imaginary eigenvectors =   4
  ** Hessian has wrong structure
  ** Imaginary eigenvectors =   2
  Cycle:     12 Energy:     -6171.761308  Gnorm:      0.081597  CPU:    2.344
  ** Hessian has wrong structure
  ** Imaginary eigenvectors =   2
  ** Hessian has required structure
  Cycle:     13 Energy:     -6171.984802  Gnorm:      0.049201  CPU:    2.756
  ** Hessian has required structure
  Cycle:     14 Energy:     -6172.066501  Gnorm:      0.020915  CPU:    2.900
  ** Hessian has required structure
  Cycle:     15 Energy:     -6172.097522  Gnorm:      0.008997  CPU:    3.041
  ** Hessian has required structure
  Cycle:     16 Energy:     -6172.107829  Gnorm:      0.008104  CPU:    3.190
  ** Hessian has required structure
  Cycle:     17 Energy:     -6172.110770  Gnorm:      0.006985  CPU:    3.348
  ** Hessian has required structure
  Cycle:     18 Energy:     -6172.112851  Gnorm:      0.003204  CPU:    3.481
  ** Hessian has required structure
  Cycle:     19 Energy:     -6172.114453  Gnorm:      0.003606  CPU:    3.633
  ** Hessian has required structure
  Cycle:     20 Energy:     -6172.115375  Gnorm:      0.002307  CPU:    3.766
  ** Hessian has required structure
  Cycle:     21 Energy:     -6172.115603  Gnorm:      0.001160  CPU:    3.890
  ** Hessian has required structure
  Cycle:     22 Energy:     -6172.115700  Gnorm:      0.000486  CPU:    4.020
  ** Hessian has required structure
  Cycle:     23 Energy:     -6172.115732  Gnorm:      0.000200  CPU:    4.211
  ** Hessian has required structure
  Cycle:     24 Energy:     -6172.115736  Gnorm:      0.000140  CPU:    4.305
  ** Hessian has required structure
  Cycle:     25 Energy:     -6172.115736  Gnorm:      0.000139  CPU:    4.480
  ** Hessian has required structure
  Cycle:     26 Energy:     -6172.115736  Gnorm:      0.000139  CPU:    4.564
  ** Hessian has required structure
  Cycle:     27 Energy:     -6172.115736  Gnorm:      0.000137  CPU:    4.708
  ** Hessian has required structure
  Cycle:     28 Energy:     -6172.115736  Gnorm:      0.000136  CPU:    4.822
  ** Hessian has required structure
  Cycle:     29 Energy:     -6172.115736  Gnorm:      0.000136  CPU:    4.934
  ** Hessian has required structure
  Cycle:     30 Energy:     -6172.115736  Gnorm:      0.000136  CPU:    5.019
  ** Hessian has required structure
  Cycle:     31 Energy:     -6172.115736  Gnorm:      0.000135  CPU:    5.127
  ** Hessian has required structure
  Cycle:     32 Energy:     -6172.115727  Gnorm:      0.000141  CPU:    5.300
  ** Hessian has required structure
  Cycle:     33 Energy:     -6172.115734  Gnorm:      0.000176  CPU:    5.542
  ** Hessian has required structure
  Cycle:     34 Energy:     -6172.115735  Gnorm:      0.000158  CPU:    5.687
  ** Hessian has required structure
  Cycle:     35 Energy:     -6172.115736  Gnorm:      0.000146  CPU:    5.844
  ** Hessian has required structure
  Cycle:     36 Energy:     -6172.115736  Gnorm:      0.000144  CPU:    5.960
  ** Hessian has required structure
  Cycle:     37 Energy:     -6172.115736  Gnorm:      0.000142  CPU:    6.092
  ** Hessian has required structure
  Cycle:     38 Energy:     -6172.115736  Gnorm:      0.000141  CPU:    6.206
  ** Hessian has required structure
  Cycle:     39 Energy:     -6172.115736  Gnorm:      0.000141  CPU:    6.317
  ** Hessian has required structure
  Cycle:     40 Energy:     -6172.115736  Gnorm:      0.000141  CPU:    6.399
  ** Hessian has required structure
  Cycle:     41 Energy:     -6172.115736  Gnorm:      0.000141  CPU:    6.480
  ** Hessian has required structure
  Cycle:     42 Energy:     -6172.115736  Gnorm:      0.000141  CPU:    6.562
  ** Hessian has required structure
  Cycle:     43 Energy:     -6172.115736  Gnorm:      0.000141  CPU:    6.856
  ** Hessian calculated **


  **** Optimisation achieved ****


  Final energy =   -6172.11573584 eV      
  Final Gnorm  =       0.00014067

  Components of energy : 

--------------------------------------------------------------------------------
  Interatomic potentials     =        1671.10771700 eV    
  Three-body potentials      =           0.50998654 eV    
  Monopole - monopole (real) =       -5153.11446598 eV    
  Monopole - monopole (recip)=       -2690.61897341 eV    
  Monopole - monopole (total)=       -7843.73343939 eV    
--------------------------------------------------------------------------------
  Total lattice energy       =       -6172.11573584 eV    
--------------------------------------------------------------------------------
  Total lattice energy       =         -595514.8191 kJ/(mole unit cells)
--------------------------------------------------------------------------------

  Final fractional coordinates of atoms :

--------------------------------------------------------------------------------
   No.  Atomic        x           y          z          Radius
        Label       (Frac)      (Frac)     (Frac)       (Angs) 
--------------------------------------------------------------------------------
     1  Si    c     0.332439    0.432923    0.047710    0.000000
     2  Si    c     0.670850    0.932959    0.455838    0.000000
     3  Si    c     0.670846    0.564050    0.955835    0.000000
     4  Si    c     0.332440    0.064021    0.547711    0.000000
     5  Si    c     0.598261    0.107611    0.329586    0.000000
     6  Si    c     0.405011    0.607574    0.173955    0.000000
     7  Si    c     0.405034    0.889367    0.673963    0.000000
     8  Si    c     0.598265    0.389396    0.829595    0.000000
     9  Si    c     0.437890    0.104628    0.102989    0.000000
    10  Si    c     0.565333    0.604586    0.400549    0.000000
    11  Si    c     0.565392    0.892337    0.900562    0.000000
    12  Si    c     0.437945    0.392391    0.603002    0.000000
    13  Si    c     0.291728    0.576022    0.504824    0.000000
    14  Si    c     0.711518    0.075990    0.998758    0.000000
    15  Si    c     0.711558    0.420962    0.498732    0.000000
    16  Si    c     0.291768    0.920977    0.004798    0.000000
    17  Si    c     0.276648    0.796663    0.145529    0.000000
    18  Si    c     0.726675    0.296666    0.358014    0.000000
    19  Si    c     0.726633    0.200308    0.858026    0.000000
    20  Si    c     0.276602    0.700319    0.645533    0.000000
    21  Si    c     0.609058    0.376893    0.147421    0.000000
    22  Si    c     0.394244    0.876895    0.356112    0.000000
    23  Si    c     0.394222    0.620084    0.856121    0.000000
    24  Si    c     0.609049    0.120082    0.647441    0.000000
    25  Si    c     0.232606    0.046451    0.330302    0.000000
    26  Si    c     0.770666    0.546485    0.173242    0.000000
    27  Si    c     0.770686    0.950526    0.673249    0.000000
    28  Si    c     0.232616    0.450490    0.830308    0.000000
    29  Si    c     0.382874    0.196488    0.314911    0.000000
    30  Si    c     0.620385    0.696488    0.188648    0.000000
    31  Si    c     0.620420    0.800489    0.688638    0.000000
    32  Si    c     0.382891    0.300485    0.814900    0.000000
    33  Si    c     0.257552    0.245741    0.097050    0.000000
    34  Si    c     0.745681    0.745751    0.406510    0.000000
    35  Si    c     0.745737    0.751225    0.906500    0.000000
    36  Si    c     0.257595    0.251227    0.597038    0.000000
    37  Si    c     0.002532    0.347153    0.476491    0.000000
    38  Si    c     0.000777    0.847158    0.027055    0.000000
    39  Si    c     0.000748    0.649829    0.527051    0.000000
    40  Si    c     0.002507    0.149823    0.976496    0.000000
    41  Si    c     0.015007    0.525864    0.382921    0.000000
    42  Si    c     0.988250    0.025842    0.120623    0.000000
    43  Si    c     0.988279    0.471117    0.620625    0.000000
    44  Si    c     0.015039    0.971139    0.882929    0.000000
    45  Si    c     0.557610    0.210198    0.019205    0.000000
    46  Si    c     0.445641    0.710197    0.484344    0.000000
    47  Si    c     0.445668    0.786770    0.984342    0.000000
    48  Si    c     0.557648    0.286782    0.519211    0.000000
    49  O     c     0.325006    0.520495    0.102706    0.000000
    50  O     c     0.678264    0.020524    0.400823    0.000000
    51  O     c     0.678280    0.476465    0.900856    0.000000
    52  O     c     0.325031    0.976456    0.602731    0.000000
    53  O     c     0.472067    0.419259    0.086751    0.000000
    54  O     c     0.531220    0.919281    0.416784    0.000000
    55  O     c     0.531211    0.577730    0.916767    0.000000
    56  O     c     0.472067    0.077701    0.586758    0.000000
    57  O     c     0.246170    0.042127    0.430167    0.000000
    58  O     c     0.757112    0.542193    0.073383    0.000000
    59  O     c     0.757116    0.954847    0.573382    0.000000
    60  O     c     0.246157    0.454798    0.930162    0.000000
    61  O     c     0.282135    0.342935    0.067146    0.000000
    62  O     c     0.721182    0.842976    0.436422    0.000000
    63  O     c     0.721185    0.654016    0.936401    0.000000
    64  O     c     0.282103    0.154006    0.567124    0.000000
    65  O     c     0.551597    0.085236    0.219021    0.000000
    66  O     c     0.451681    0.585162    0.284514    0.000000
    67  O     c     0.451708    0.911742    0.784530    0.000000
    68  O     c     0.551612    0.411807    0.719039    0.000000
    69  O     c     0.316800    0.698503    0.128344    0.000000
    70  O     c     0.686476    0.198535    0.375213    0.000000
    71  O     c     0.686466    0.298461    0.875208    0.000000
    72  O     c     0.316817    0.798444    0.628337    0.000000
    73  O     c     0.478910    0.122622    0.325449    0.000000
    74  O     c     0.524371    0.622594    0.178106    0.000000
    75  O     c     0.524378    0.874353    0.678094    0.000000
    76  O     c     0.478893    0.374386    0.825430    0.000000
    77  O     c     0.385492    0.007321    0.045441    0.000000
    78  O     c     0.617824    0.507294    0.458116    0.000000
    79  O     c     0.617814    0.989636    0.958121    0.000000
    80  O     c     0.385460    0.489688    0.545441    0.000000
    81  O     c     0.326877    0.161090    0.088559    0.000000
    82  O     c     0.676298    0.661162    0.415017    0.000000
    83  O     c     0.676392    0.835851    0.915000    0.000000
    84  O     c     0.326975    0.335823    0.588539    0.000000
    85  O     c     0.488892    0.162687    0.056575    0.000000
    86  O     c     0.514176    0.662527    0.446900    0.000000
    87  O     c     0.514351    0.834300    0.946954    0.000000
    88  O     c     0.489079    0.334441    0.556637    0.000000
    89  O     c     0.702601    0.379821    0.407049    0.000000
    90  O     c     0.300751    0.879775    0.096473    0.000000
    91  O     c     0.300678    0.617155    0.596507    0.000000
    92  O     c     0.702532    0.117194    0.907083    0.000000
    93  O     c     0.151009    0.545585    0.415708    0.000000
    94  O     c     0.852256    0.045569    0.087853    0.000000
    95  O     c     0.852275    0.451408    0.587840    0.000000
    96  O     c     0.151039    0.951416    0.915706    0.000000
    97  O     c     0.673503    0.150028    0.045923    0.000000
    98  O     c     0.329708    0.650147    0.457704    0.000000
    99  O     c     0.329770    0.846927    0.957633    0.000000
   100  O     c     0.673584    0.346843    0.545863    0.000000
   101  O     c     0.641239    0.317171    0.240390    0.000000
   102  O     c     0.362097    0.817187    0.263151    0.000000
   103  O     c     0.362021    0.679822    0.763157    0.000000
   104  O     c     0.641190    0.179782    0.740405    0.000000
   105  O     c     0.131249    0.791816    0.095122    0.000000
   106  O     c     0.872081    0.291779    0.408442    0.000000
   107  O     c     0.872032    0.205163    0.908436    0.000000
   108  O     c     0.131192    0.705213    0.595088    0.000000
   109  O     c     0.707521    0.459077    0.185169    0.000000
   110  O     c     0.295753    0.959062    0.318350    0.000000
   111  O     c     0.295767    0.537891    0.818371    0.000000
   112  O     c     0.707535    0.037913    0.685199    0.000000
   113  O     c     0.612224    0.310360    0.073032    0.000000
   114  O     c     0.391097    0.810361    0.430506    0.000000
   115  O     c     0.391072    0.686605    0.930523    0.000000
   116  O     c     0.612210    0.186622    0.573056    0.000000
   117  O     c     0.290091    0.142367    0.326293    0.000000
   118  O     c     0.713180    0.642389    0.177266    0.000000
   119  O     c     0.713207    0.854610    0.677263    0.000000
   120  O     c     0.290103    0.354576    0.826297    0.000000
   121  O     c     0.085803    0.043223    0.238822    0.000000
   122  O     c     0.917468    0.543257    0.264723    0.000000
   123  O     c     0.917490    0.953756    0.764730    0.000000
   124  O     c     0.085815    0.453717    0.738821    0.000000
   125  O     c     0.306029    0.251475    0.210181    0.000000
   126  O     c     0.697209    0.751463    0.293380    0.000000
   127  O     c     0.697258    0.745504    0.793368    0.000000
   128  O     c     0.306061    0.245509    0.710166    0.000000
   129  O     c     0.457074    0.275136    0.400018    0.000000
   130  O     c     0.546159    0.775139    0.103542    0.000000
   131  O     c     0.546228    0.721839    0.603533    0.000000
   132  O     c     0.457134    0.221833    0.900004    0.000000
   133  O     c     0.110146    0.226747    0.021427    0.000000
   134  O     c     0.893073    0.726713    0.482135    0.000000
   135  O     c     0.893139    0.770236    0.982121    0.000000
   136  O     c     0.110200    0.270260    0.521410    0.000000
   137  O     c     0.007496    0.418941    0.407092    0.000000
   138  O     c     0.995743    0.918923    0.096432    0.000000
   139  O     c     0.995808    0.578040    0.596464    0.000000
   140  O     c     0.007532    0.078059    0.907112    0.000000
   141  O     c     0.023142    0.094846    0.067411    0.000000
   142  O     c     0.980108    0.594866    0.436129    0.000000
   143  O     c     0.980154    0.902131    0.936143    0.000000
   144  O     c     0.023160    0.402110    0.567410    0.000000
   145  O     s     0.334803    0.520564    0.104608    0.000000
   146  O     s     0.668469    0.020594    0.398925    0.000000
   147  O     s     0.668481    0.476399    0.898951    0.000000
   148  O     s     0.334826    0.976386    0.604628    0.000000
   149  O     s     0.471959    0.415902    0.089272    0.000000
   150  O     s     0.531329    0.915924    0.414265    0.000000
   151  O     s     0.531320    0.581083    0.914252    0.000000
   152  O     s     0.471959    0.081058    0.589280    0.000000
   153  O     s     0.254351    0.045078    0.432025    0.000000
   154  O     s     0.748930    0.545137    0.071524    0.000000
   155  O     s     0.748937    0.951897    0.571524    0.000000
   156  O     s     0.254342    0.451851    0.932022    0.000000
   157  O     s     0.285196    0.342001    0.068410    0.000000
   158  O     s     0.718108    0.842039    0.435155    0.000000
   159  O     s     0.718115    0.654954    0.935137    0.000000
   160  O     s     0.285178    0.154943    0.568392    0.000000
   161  O     s     0.544283    0.089875    0.218511    0.000000
   162  O     s     0.458989    0.589809    0.285025    0.000000
   163  O     s     0.459019    0.907102    0.785040    0.000000
   164  O     s     0.544300    0.407161    0.718528    0.000000
   165  O     s     0.322093    0.699585    0.135359    0.000000
   166  O     s     0.681188    0.199614    0.368195    0.000000
   167  O     s     0.681176    0.297381    0.868193    0.000000
   168  O     s     0.322103    0.797366    0.635355    0.000000
   169  O     s     0.481476    0.129059    0.324713    0.000000
   170  O     s     0.521802    0.629034    0.178841    0.000000
   171  O     s     0.521813    0.867917    0.678831    0.000000
   172  O     s     0.481464    0.367944    0.824698    0.000000
   173  O     s     0.380774    0.008621    0.047422    0.000000
   174  O     s     0.622533    0.508594    0.456130    0.000000
   175  O     s     0.622527    0.988337    0.956138    0.000000
   176  O     s     0.380750    0.488388    0.547426    0.000000
   177  O     s     0.331628    0.164203    0.091222    0.000000
   178  O     s     0.671558    0.664256    0.412348    0.000000
   179  O     s     0.671644    0.832743    0.912335    0.000000
   180  O     s     0.331716    0.332728    0.591207    0.000000
   181  O     s     0.491000    0.161435    0.057758    0.000000
   182  O     s     0.512110    0.661308    0.445734    0.000000
   183  O     s     0.512252    0.835547    0.945776    0.000000
   184  O     s     0.491153    0.335663    0.557807    0.000000
   185  O     s     0.706400    0.375169    0.411733    0.000000
   186  O     s     0.296946    0.875134    0.091791    0.000000
   187  O     s     0.296880    0.621808    0.591821    0.000000
   188  O     s     0.706337    0.121835    0.911764    0.000000
   189  O     s     0.151519    0.546790    0.422117    0.000000
   190  O     s     0.851742    0.046772    0.081444    0.000000
   191  O     s     0.851765    0.450201    0.581431    0.000000
   192  O     s     0.151551    0.950211    0.922114    0.000000
   193  O     s     0.664683    0.148483    0.037580    0.000000
   194  O     s     0.338537    0.648577    0.466034    0.000000
   195  O     s     0.338591    0.848475    0.965975    0.000000
   196  O     s     0.664755    0.348411    0.537529    0.000000
   197  O     s     0.647166    0.321427    0.243243    0.000000
   198  O     s     0.356166    0.821438    0.260298    0.000000
   199  O     s     0.356098    0.675564    0.760304    0.000000
   200  O     s     0.647121    0.175532    0.743257    0.000000
   201  O     s     0.133037    0.798539    0.093210    0.000000
   202  O     s     0.870290    0.298509    0.410350    0.000000
   203  O     s     0.870245    0.198440    0.910347    0.000000
   204  O     s     0.132984    0.698482    0.593184    0.000000
   205  O     s     0.703134    0.459270    0.179529    0.000000
   206  O     s     0.300144    0.959254    0.323994    0.000000
   207  O     s     0.300153    0.537700    0.824013    0.000000
   208  O     s     0.703146    0.037721    0.679556    0.000000
   209  O     s     0.605893    0.306798    0.075208    0.000000
   210  O     s     0.397419    0.806798    0.428330    0.000000
   211  O     s     0.397399    0.690169    0.928345    0.000000
   212  O     s     0.605884    0.190184    0.575230    0.000000
   213  O     s     0.294197    0.137787    0.325509    0.000000
   214  O     s     0.709072    0.637809    0.178049    0.000000
   215  O     s     0.709100    0.859190    0.678046    0.000000
   216  O     s     0.294210    0.359158    0.825511    0.000000
   217  O     s     0.091294    0.041619    0.235747    0.000000
   218  O     s     0.911975    0.541652    0.267798    0.000000
   219  O     s     0.911999    0.955361    0.767804    0.000000
   220  O     s     0.091308    0.455324    0.735748    0.000000
   221  O     s     0.309230    0.244741    0.209329    0.000000
   222  O     s     0.694009    0.744733    0.294232    0.000000
   223  O     s     0.694057    0.752236    0.794220    0.000000
   224  O     s     0.309261    0.252240    0.709315    0.000000
   225  O     s     0.459994    0.267690    0.403707    0.000000
   226  O     s     0.543251    0.767693    0.099852    0.000000
   227  O     s     0.543305    0.729285    0.599844    0.000000
   228  O     s     0.460038    0.229279    0.903695    0.000000
   229  O     s     0.114572    0.220158    0.024870    0.000000
   230  O     s     0.888652    0.720132    0.478690    0.000000
   231  O     s     0.888713    0.776823    0.978679    0.000000
   232  O     s     0.114622    0.276843    0.524855    0.000000
   233  O     s     0.007770    0.422845    0.412182    0.000000
   234  O     s     0.995479    0.922829    0.091347    0.000000
   235  O     s     0.995530    0.574136    0.591371    0.000000
   236  O     s     0.007798    0.074153    0.912198    0.000000
   237  O     s     0.016998    0.093269    0.063156    0.000000
   238  O     s     0.986253    0.593288    0.440385    0.000000
   239  O     s     0.986295    0.903709    0.940397    0.000000
   240  O     s     0.017019    0.403690    0.563156    0.000000
--------------------------------------------------------------------------------

  Final Cartesian lattice vectors (Angstroms) :

       13.692052   -0.000042    0.049625
       -0.000037   14.290214    0.000093
      -10.712671    0.000114   13.324382


  Final cell parameters and derivatives :

--------------------------------------------------------------------------------
       a           13.692142 Angstrom     dE/de1(xx)    -0.014117 eV/strain
       b           14.290214 Angstrom     dE/de2(yy)    -0.013820 eV/strain
       c           17.096797 Angstrom     dE/de3(zz)    -0.015554 eV/strain
       alpha       89.999232 Degrees      dE/de4(yz)    -0.010612 eV/strain
       beta       128.591274 Degrees      dE/de5(xz)     0.001518 eV/strain
       gamma       90.000321 Degrees      dE/de6(xy)     0.004277 eV/strain
--------------------------------------------------------------------------------

  Primitive cell volume =          2614.676879 Angs**3

  Density of cell =      1.831814 g/cm**3

  Non-primitive cell volume =          2614.676879 Angs**3


  Final internal derivatives :

--------------------------------------------------------------------------------
   No.  Atomic          a             b             c           Radius
        Label          (eV)          (eV)          (eV)        (eV/Angs)
--------------------------------------------------------------------------------
      1 Si    c      -0.007900     -0.002943      0.006477      0.000000
      2 Si    c       0.000115     -0.004081      0.005018      0.000000
      3 Si    c      -0.001017     -0.006781      0.003568      0.000000
      4 Si    c       0.001402      0.003838     -0.000537      0.000000
      5 Si    c       0.001202     -0.003474     -0.007624      0.000000
      6 Si    c      -0.000284     -0.001333      0.001835      0.000000
      7 Si    c       0.000569      0.002195      0.008027      0.000000
      8 Si    c       0.001540      0.007375      0.000158      0.000000
      9 Si    c       0.003611     -0.005514      0.000065      0.000000
     10 Si    c      -0.007365      0.000121      0.004476      0.000000
     11 Si    c      -0.004405      0.002678      0.001740      0.000000
     12 Si    c      -0.001732      0.008368      0.005007      0.000000
     13 Si    c       0.000822     -0.000923     -0.000601      0.000000
     14 Si    c      -0.004797     -0.000256      0.004379      0.000000
     15 Si    c       0.002086      0.001020     -0.003496      0.000000
     16 Si    c       0.004591     -0.001551     -0.008942      0.000000
     17 Si    c      -0.001925     -0.002352      0.004428      0.000000
     18 Si    c      -0.001848      0.000587      0.006436      0.000000
     19 Si    c       0.003165      0.001822     -0.005709      0.000000
     20 Si    c      -0.002841     -0.000183     -0.002926      0.000000
     21 Si    c       0.008761      0.006352     -0.011125      0.000000
     22 Si    c       0.002708      0.004926     -0.001603      0.000000
     23 Si    c       0.000286      0.002763      0.013930      0.000000
     24 Si    c      -0.001003     -0.002672      0.002975      0.000000
     25 Si    c       0.000755     -0.002187     -0.003843      0.000000
     26 Si    c      -0.002964      0.003258     -0.000766      0.000000
     27 Si    c       0.000485      0.002435     -0.001746      0.000000
     28 Si    c      -0.004514     -0.002044      0.007704      0.000000
     29 Si    c       0.004447      0.001519     -0.000049      0.000000
     30 Si    c       0.002570     -0.001723      0.000563      0.000000
     31 Si    c      -0.002990      0.000632     -0.005359      0.000000
     32 Si    c       0.002695      0.000473     -0.005555      0.000000
     33 Si    c      -0.004225      0.003902      0.002024      0.000000
     34 Si    c       0.002307      0.006457      0.001060      0.000000
     35 Si    c      -0.001545      0.000285      0.004780      0.000000
     36 Si    c       0.002028     -0.001024      0.000277      0.000000
     37 Si    c      -0.007774      0.001074      0.010370      0.000000
     38 Si    c       0.000248      0.003135      0.004214      0.000000
     39 Si    c       0.002381      0.002398     -0.004330      0.000000
     40 Si    c       0.002593     -0.000445     -0.006134      0.000000
     41 Si    c       0.000660      0.003118      0.001104      0.000000
     42 Si    c      -0.000146     -0.006081      0.001715      0.000000
     43 Si    c       0.000266     -0.003509     -0.002757      0.000000
     44 Si    c       0.000228      0.002894     -0.001057      0.000000
     45 Si    c       0.004372      0.002584     -0.001798      0.000000
     46 Si    c       0.006186     -0.006181      0.002392      0.000000
     47 Si    c       0.003289     -0.002825     -0.009355      0.000000
     48 Si    c       0.010016     -0.007489     -0.019171      0.000000
     49 O     c       0.000236     -0.000092      0.002205      0.000000
     50 O     c      -0.003630      0.001656     -0.000971      0.000000
     51 O     c      -0.004764      0.003083      0.003599      0.000000
     52 O     c      -0.000890     -0.003591      0.002527      0.000000
     53 O     c      -0.004736      0.002932     -0.000432      0.000000
     54 O     c       0.002740     -0.004281     -0.002189      0.000000
     55 O     c      -0.000232      0.003680     -0.002538      0.000000
     56 O     c      -0.000023      0.003328     -0.001736      0.000000
     57 O     c      -0.005014     -0.001244      0.007730      0.000000
     58 O     c       0.000135      0.004889     -0.008765      0.000000
     59 O     c       0.000387     -0.003408     -0.007502      0.000000
     60 O     c      -0.004385      0.001513      0.004353      0.000000
     61 O     c       0.009521      0.011227     -0.008522      0.000000
     62 O     c      -0.006248      0.004415      0.003236      0.000000
     63 O     c      -0.003900     -0.004629      0.002261      0.000000
     64 O     c       0.003320     -0.004519     -0.003013      0.000000
     65 O     c      -0.004692      0.007647      0.017591      0.000000
     66 O     c       0.001526      0.002713     -0.005084      0.000000
     67 O     c       0.009594     -0.008283     -0.015089      0.000000
     68 O     c       0.003328     -0.003610      0.005000      0.000000
     69 O     c       0.001342      0.000478     -0.001669      0.000000
     70 O     c      -0.001874     -0.001282      0.000728      0.000000
     71 O     c      -0.000672     -0.003221      0.002985      0.000000
     72 O     c       0.003214      0.004167     -0.002694      0.000000
     73 O     c      -0.000633      0.001032      0.001357      0.000000
     74 O     c       0.003602      0.001460     -0.003301      0.000000
     75 O     c      -0.000056     -0.003740      0.000027      0.000000
     76 O     c      -0.004191      0.001199      0.002852      0.000000
     77 O     c      -0.001623      0.001140      0.002061      0.000000
     78 O     c       0.000131     -0.002466      0.000883      0.000000
     79 O     c       0.002364     -0.002251     -0.004210      0.000000
     80 O     c      -0.000745      0.003482     -0.001256      0.000000
     81 O     c      -0.003493     -0.000568      0.001563      0.000000
     82 O     c       0.003330      0.003264     -0.001401      0.000000
     83 O     c      -0.000632      0.000848     -0.000259      0.000000
     84 O     c      -0.012029     -0.012325      0.007380      0.000000
     85 O     c      -0.003014      0.000868      0.000523      0.000000
     86 O     c      -0.012648     -0.002369      0.006779      0.000000
     87 O     c      -0.006915     -0.000861      0.007755      0.000000
     88 O     c      -0.009044      0.008261      0.014267      0.000000
     89 O     c       0.000712     -0.002039     -0.001120      0.000000
     90 O     c       0.000774      0.001242      0.000424      0.000000
     91 O     c       0.000587      0.000184     -0.000827      0.000000
     92 O     c      -0.001926     -0.002597      0.001575      0.000000
     93 O     c      -0.000910      0.000553     -0.000269      0.000000
     94 O     c       0.001372      0.000367      0.001179      0.000000
     95 O     c       0.000196      0.000052      0.000551      0.000000
     96 O     c       0.000485     -0.000507     -0.000525      0.000000
     97 O     c       0.002898     -0.004113     -0.003454      0.000000
     98 O     c       0.002670      0.008800     -0.002951      0.000000
     99 O     c      -0.000753      0.004804      0.003613      0.000000
    100 O     c       0.004404     -0.003432      0.000865      0.000000
    101 O     c      -0.008045     -0.010275      0.015823      0.000000
    102 O     c       0.000646      0.001578     -0.001790      0.000000
    103 O     c       0.003054      0.002716     -0.001428      0.000000
    104 O     c      -0.000943     -0.000650      0.002092      0.000000
    105 O     c      -0.003063      0.002638     -0.000102      0.000000
    106 O     c       0.005835      0.002006     -0.003409      0.000000
    107 O     c      -0.000475     -0.000577     -0.000208      0.000000
    108 O     c       0.000267     -0.000575      0.000936      0.000000
    109 O     c      -0.001227     -0.001852      0.000468      0.000000
    110 O     c       0.001394     -0.001658     -0.000757      0.000000
    111 O     c       0.005141      0.003461     -0.010756      0.000000
    112 O     c       0.000707     -0.000212     -0.003263      0.000000
    113 O     c       0.000572     -0.004880     -0.000025      0.000000
    114 O     c       0.000231      0.001704     -0.003113      0.000000
    115 O     c       0.006353      0.005056     -0.008297      0.000000
    116 O     c       0.003178     -0.003296      0.001469      0.000000
    117 O     c      -0.000216      0.000592      0.001434      0.000000
    118 O     c      -0.000939     -0.003845      0.000891      0.000000
    119 O     c       0.001011      0.000411     -0.000733      0.000000
    120 O     c       0.000143     -0.005553     -0.000530      0.000000
    121 O     c      -0.001371     -0.000477      0.000148      0.000000
    122 O     c       0.001275     -0.000180     -0.002075      0.000000
    123 O     c       0.000975      0.000238     -0.000712      0.000000
    124 O     c      -0.005279      0.000347      0.002135      0.000000
    125 O     c       0.001080      0.000380     -0.006198      0.000000
    126 O     c       0.000836     -0.003353     -0.004978      0.000000
    127 O     c       0.001003     -0.001480      0.001046      0.000000
    128 O     c      -0.000003     -0.001676     -0.000014      0.000000
    129 O     c      -0.001603     -0.001672     -0.003676      0.000000
    130 O     c      -0.002348     -0.001745     -0.002018      0.000000
    131 O     c      -0.000153      0.006373     -0.002194      0.000000
    132 O     c       0.001673     -0.003334      0.004822      0.000000
    133 O     c       0.001405      0.000005      0.000401      0.000000
    134 O     c      -0.003148      0.000512      0.000251      0.000000
    135 O     c      -0.000274     -0.001111      0.000198      0.000000
    136 O     c       0.001366     -0.002384     -0.000955      0.000000
    137 O     c       0.000898      0.001731     -0.001340      0.000000
    138 O     c       0.002107      0.001388     -0.007752      0.000000
    139 O     c       0.000884      0.002053     -0.002181      0.000000
    140 O     c      -0.003556      0.001970      0.007229      0.000000
    141 O     c       0.000397      0.002271     -0.002198      0.000000
    142 O     c       0.001238      0.000993      0.001323      0.000000
    143 O     c      -0.000529     -0.003226      0.003868      0.000000
    144 O     c       0.000000      0.000000      0.000000      0.000000
    145 O     s      -0.004290     -0.001446      0.003795      0.000000
    146 O     s       0.001488     -0.004327     -0.000974      0.000000
    147 O     s       0.000413      0.005858      0.001747      0.000000
    148 O     s       0.000062      0.000888      0.002395      0.000000
    149 O     s      -0.004210     -0.004546     -0.005350      0.000000
    150 O     s       0.000462     -0.001165      0.000682      0.000000
    151 O     s       0.002642      0.002877      0.002004      0.000000
    152 O     s      -0.000620     -0.000092      0.000510      0.000000
    153 O     s       0.002885      0.000094     -0.003140      0.000000
    154 O     s      -0.003145      0.000513      0.002127      0.000000
    155 O     s      -0.003726      0.001133      0.002100      0.000000
    156 O     s       0.002321     -0.001558      0.004474      0.000000
    157 O     s       0.001558     -0.002767      0.001900      0.000000
    158 O     s       0.000153      0.001590     -0.000027      0.000000
    159 O     s      -0.001291     -0.001552      0.000708      0.000000
    160 O     s      -0.001033      0.001357      0.001321      0.000000
    161 O     s       0.001997     -0.003533     -0.002314      0.000000
    162 O     s      -0.001384     -0.001623      0.001694      0.000000
    163 O     s      -0.000609     -0.003075      0.003563      0.000000
    164 O     s       0.003996      0.006221     -0.001306      0.000000
    165 O     s      -0.002144     -0.001897      0.002020      0.000000
    166 O     s      -0.000711     -0.004634     -0.000997      0.000000
    167 O     s       0.001719      0.001902     -0.000709      0.000000
    168 O     s       0.002778      0.004255      0.002844      0.000000
    169 O     s       0.002320      0.001725     -0.004560      0.000000
    170 O     s       0.000411      0.004308      0.002897      0.000000
    171 O     s      -0.003001     -0.004946      0.005497      0.000000
    172 O     s       0.000427     -0.001131     -0.001183      0.000000
    173 O     s       0.000131     -0.004771      0.000394      0.000000
    174 O     s       0.001138      0.000413     -0.001089      0.000000
    175 O     s      -0.003012     -0.000908      0.000499      0.000000
    176 O     s      -0.003008      0.004772      0.002458      0.000000
    177 O     s      -0.001671      0.000995      0.001144      0.000000
    178 O     s      -0.000323     -0.001116      0.000851      0.000000
    179 O     s      -0.003868     -0.002208      0.001255      0.000000
    180 O     s      -0.003398      0.003507      0.000155      0.000000
    181 O     s       0.003016      0.002736     -0.003819      0.000000
    182 O     s      -0.001620      0.004132      0.003612      0.000000
    183 O     s       0.002484     -0.002962     -0.003592      0.000000
    184 O     s       0.004258     -0.002045     -0.006322      0.000000
    185 O     s      -0.001739      0.002347      0.001648      0.000000
    186 O     s       0.000700      0.001050     -0.001722      0.000000
    187 O     s      -0.000736     -0.002918     -0.001602      0.000000
    188 O     s      -0.000651     -0.000038      0.002764      0.000000
    189 O     s      -0.003046     -0.001331      0.003460      0.000000
    190 O     s       0.000574     -0.001765     -0.000903      0.000000
    191 O     s       0.004210      0.001135     -0.004142      0.000000
    192 O     s      -0.001145      0.001549      0.001853      0.000000
    193 O     s      -0.002361      0.000334      0.002556      0.000000
    194 O     s       0.002642      0.000615      0.001090      0.000000
    195 O     s       0.005726     -0.003334     -0.002936      0.000000
    196 O     s       0.006643      0.002561     -0.003870      0.000000
    197 O     s       0.001308      0.001781     -0.000756      0.000000
    198 O     s      -0.002317     -0.000146      0.005672      0.000000
    199 O     s       0.000602      0.001893      0.004458      0.000000
    200 O     s       0.001379      0.000099     -0.003461      0.000000
    201 O     s      -0.001549      0.002865      0.001097      0.000000
    202 O     s       0.001656      0.003187      0.002033      0.000000
    203 O     s       0.002541     -0.001289     -0.000808      0.000000
    204 O     s      -0.002371     -0.004296     -0.000243      0.000000
    205 O     s       0.006475      0.003254     -0.005615      0.000000
    206 O     s       0.001323     -0.002087      0.001188      0.000000
    207 O     s      -0.002982      0.002428      0.001769      0.000000
    208 O     s       0.000775     -0.002000     -0.001806      0.000000
    209 O     s       0.001842      0.001195     -0.004956      0.000000
    210 O     s       0.008001     -0.001268     -0.006047      0.000000
    211 O     s       0.006695      0.003773     -0.004612      0.000000
    212 O     s      -0.002004     -0.006469      0.001675      0.000000
    213 O     s       0.000803      0.001259     -0.002534      0.000000
    214 O     s      -0.001343      0.000830      0.002084      0.000000
    215 O     s      -0.003486      0.001380      0.003157      0.000000
    216 O     s      -0.001450     -0.002837      0.002018      0.000000
    217 O     s       0.000502     -0.000409     -0.002740      0.000000
    218 O     s      -0.000495      0.000793      0.001888      0.000000
    219 O     s      -0.001126      0.000990      0.001236      0.000000
    220 O     s       0.000732      0.000132     -0.004730      0.000000
    221 O     s      -0.001354     -0.000405      0.002158      0.000000
    222 O     s      -0.000117      0.000361      0.001338      0.000000
    223 O     s      -0.002614      0.002102      0.000106      0.000000
    224 O     s      -0.000020      0.000738     -0.002071      0.000000
    225 O     s      -0.002103     -0.003133     -0.000940      0.000000
    226 O     s      -0.000601      0.000320     -0.002842      0.000000
    227 O     s       0.000172     -0.003070     -0.002774      0.000000
    228 O     s      -0.000130      0.001116      0.001532      0.000000
    229 O     s      -0.001493     -0.001715      0.001525      0.000000
    230 O     s       0.001704     -0.001757     -0.001697      0.000000
    231 O     s       0.001173      0.001816     -0.000130      0.000000
    232 O     s      -0.002550      0.002393      0.001036      0.000000
    233 O     s      -0.002569      0.000830      0.006793      0.000000
    234 O     s       0.002523     -0.000359     -0.003552      0.000000
    235 O     s       0.002955     -0.003276     -0.004193      0.000000
    236 O     s       0.000173     -0.001574      0.000850      0.000000
    237 O     s       0.001547     -0.001536     -0.001139      0.000000
    238 O     s      -0.000410     -0.001834      0.001503      0.000000
    239 O     s      -0.000455     -0.000024      0.002910      0.000000
    240 O     s      -0.000850      0.000791     -0.000222      0.000000
--------------------------------------------------------------------------------
  Maximum abs         0.012648      0.012325      0.019171      0.000000
--------------------------------------------------------------------------------


  Time to end of optimisation =       7.1402 seconds


  Peak dynamic memory used =       4.41 MB 


  Timing analysis for GULP :

--------------------------------------------------------------------------------
  Task / Subroutine                                          Time (Seconds)
--------------------------------------------------------------------------------
  Calculation of reciprocal space energy and derivatives          0.3173
  Calculation of real space energy and derivatives                3.8720
  Calculation of three-body energy and derivatives                0.5416
  Calculation and manipulation of Hessian matrix                  1.5442
  Calculation of matrix inversion                                 0.0828
  Global summation overhead                                       1.0446
--------------------------------------------------------------------------------
  Total CPU time                                                  7.1403
--------------------------------------------------------------------------------


  Dump file written as ReferenceDataBase/PST-31.grs
  CIF file written as ReferenceDataBase/PST-31_opt.cif


  Job Finished at 13:05.17 20th April      2023                               

