********************************************************************************
*                       GENERAL UTILITY LATTICE PROGRAM                        *
*                                 Julian Gale                                  *
*                       Curtin Institute for Computation                       *
*                    School of Molecular and Life Sciences                     *
*                    Curtin University, Western Australia                      *
********************************************************************************
* Version = 6.1.2 * Last modified =   3rd November 2022                        *
********************************************************************************
*  optimise     - perform optimisation run                                     *
*  conp         - constant pressure calculation                                *
*  nosymmetry   - turn off symmetry after initial structure generation         *
********************************************************************************

  Job Started  at 14:14.45 20th April      2023                               

  Number of CPUs =     8


  Total number of configurations input =      1

********************************************************************************
*  Input for Configuration =   1 : ReferenceDataBase/PTF                       *
********************************************************************************

  Formula = O160Si80                                                    

  Number of irreducible atoms/shells =     400


  Total number atoms/shells =     400

  Dimensionality = 3               :  Bulk   



  Cartesian lattice vectors (Angstroms) :

       21.443600    0.000000    0.000000
        0.000000   22.527100    0.000000
       -7.138772    0.000000   10.266107

  Cell parameters (Angstroms/Degrees):

  a =      21.4436    alpha =  90.0000
  b =      22.5271    beta  = 124.8137
  c =      12.5042    gamma =  90.0000

  Initial cell volume =        4959.167563 Angs**3

  Temperature of configuration =   0.00     K 

  Pressure of configuration =         0.000 GPa 

  Fractional coordinates of asymmetric unit :

--------------------------------------------------------------------------------
   No.  Atomic       x           y          z         Charge      Occupancy
        Label      (Frac)      (Frac)     (Frac)        (e)         (Frac)  
--------------------------------------------------------------------------------
      1 O     c    0.130907 *  0.086074 *  0.129014 *   0.86902    1.000000    
      2 O     c    0.274386 *  0.070292 *  0.320282 *   0.86902    1.000000    
      3 O     c    0.288904 *  0.085520 *  0.128561 *   0.86902    1.000000    
      4 O     c    0.145785 *  0.073149 *  0.935784 *   0.86902    1.000000    
      5 O     c    0.180389 *  0.113552 *  0.368924 *   0.86902    1.000000    
      6 O     c    0.079585 *  0.199085 *  0.255337 *   0.86902    1.000000    
      7 O     c    0.000039 *  0.206000 *  0.002362 *   0.86902    1.000000    
      8 O     c    0.017882 *  0.112931 *  0.892209 *   0.86902    1.000000    
      9 O     c    0.399910 *  0.114387 *  0.365535 *   0.86902    1.000000    
     10 O     c    0.410381 *  0.208070 *  0.253488 *   0.86902    1.000000    
     11 O     c    0.334057 *  0.203775 *  0.998959 *   0.86902    1.000000    
     12 O     c    0.245554 *  0.110824 *  0.890988 *   0.86902    1.000000    
     13 O     c    0.062736 *  0.218932 *  0.877716 *   0.86902    1.000000    
     14 O     c    0.367074 *  0.001122 *  0.304153 *   0.86902    1.000000    
     15 O     c    0.171136 *  0.001122 *  0.304069 *   0.86902    1.000000    
     16 O     c    0.220482 *  0.219369 *  0.342120 *   0.86902    1.000000    
     17 O     c    0.179404 *  0.201497 *  0.503351 *   0.86902    1.000000    
     18 O     c    0.238054 *  0.196994 *  0.746157 *   0.86902    1.000000    
     19 O     c    0.247725 *  0.001122 *  0.953423 *   0.86902    1.000000    
     20 O     c    0.055647 *  0.001122 *  0.953376 *   0.86902    1.000000    
     21 O     c    0.357275 *  0.218131 *  0.398942 *   0.86902    1.000000    
     22 O     c    0.187864 *  0.209854 *  0.896176 *   0.86902    1.000000    
     23 O     c    0.500039 *  0.197418 *  0.502362 *   0.86902    1.000000    
     24 Si    c    0.087909 *  0.068214 *  0.977690 *   4.00000    1.000000    
     25 Si    c    0.188924 *  0.067568 *  0.279944 *   4.00000    1.000000    
     26 Si    c    0.332786 *  0.067697 *  0.279508 *   4.00000    1.000000    
     27 Si    c    0.231666 *  0.067721 *  0.977661 *   4.00000    1.000000    
     28 Si    c    0.165579 *  0.183885 *  0.368015 *   4.00000    1.000000    
     29 Si    c    0.000010 *  0.183628 *  0.123903 *   4.00000    1.000000    
     30 Si    c    0.416095 *  0.184836 *  0.379421 *   4.00000    1.000000    
     31 Si    c    0.373548 *  0.246694 *  0.123802 *   4.00000    1.000000    
     32 Si    c    0.251164 *  0.181772 *  0.881968 *   4.00000    1.000000    
     33 Si    c    0.209400 *  0.242193 *  0.628230 *   4.00000    1.000000    
     34 O     c    0.869171 *  0.086074 *  0.875710 *   0.86902    1.000000    
     35 O     c    0.725691 *  0.070292 *  0.684441 *   0.86902    1.000000    
     36 O     c    0.711174 *  0.085520 *  0.876162 *   0.86902    1.000000    
     37 O     c    0.854293 *  0.073149 *  0.068939 *   0.86902    1.000000    
     38 O     c    0.819689 *  0.113552 *  0.635799 *   0.86902    1.000000    
     39 O     c    0.920493 *  0.199085 *  0.749386 *   0.86902    1.000000    
     40 O     c    0.982196 *  0.112931 *  0.112515 *   0.86902    1.000000    
     41 O     c    0.600168 *  0.114387 *  0.639189 *   0.86902    1.000000    
     42 O     c    0.589696 *  0.208070 *  0.751235 *   0.86902    1.000000    
     43 O     c    0.666020 *  0.203775 *  0.005765 *   0.86902    1.000000    
     44 O     c    0.754524 *  0.110824 *  0.113735 *   0.86902    1.000000    
     45 O     c    0.937342 *  0.218932 *  0.127008 *   0.86902    1.000000    
     46 O     c    0.633004 *  0.001122 *  0.700571 *   0.86902    1.000000    
     47 O     c    0.828942 *  0.001122 *  0.700654 *   0.86902    1.000000    
     48 O     c    0.779595 *  0.219369 *  0.662603 *   0.86902    1.000000    
     49 O     c    0.820674 *  0.201497 *  0.501372 *   0.86902    1.000000    
     50 O     c    0.762024 *  0.196994 *  0.258566 *   0.86902    1.000000    
     51 O     c    0.752353 *  0.001122 *  0.051300 *   0.86902    1.000000    
     52 O     c    0.944431 *  0.001122 *  0.051348 *   0.86902    1.000000    
     53 O     c    0.642803 *  0.218131 *  0.605781 *   0.86902    1.000000    
     54 O     c    0.812213 *  0.209854 *  0.108548 *   0.86902    1.000000    
     55 Si    c    0.912169 *  0.068214 *  0.027033 *   4.00000    1.000000    
     56 Si    c    0.811154 *  0.067568 *  0.724780 *   4.00000    1.000000    
     57 Si    c    0.667292 *  0.067697 *  0.725215 *   4.00000    1.000000    
     58 Si    c    0.768412 *  0.067721 *  0.027062 *   4.00000    1.000000    
     59 Si    c    0.834499 *  0.183885 *  0.636708 *   4.00000    1.000000    
     60 Si    c    0.000068 *  0.183628 *  0.880821 *   4.00000    1.000000    
     61 Si    c    0.583982 *  0.184836 *  0.625303 *   4.00000    1.000000    
     62 Si    c    0.626530 *  0.246694 *  0.880922 *   4.00000    1.000000    
     63 Si    c    0.748914 *  0.181772 *  0.122756 *   4.00000    1.000000    
     64 Si    c    0.790678 *  0.242193 *  0.376494 *   4.00000    1.000000    
     65 O     c    0.869171 *  0.916169 *  0.875710 *   0.86902    1.000000    
     66 O     c    0.725691 *  0.931951 *  0.684441 *   0.86902    1.000000    
     67 O     c    0.711174 *  0.916723 *  0.876162 *   0.86902    1.000000    
     68 O     c    0.854293 *  0.929095 *  0.068939 *   0.86902    1.000000    
     69 O     c    0.819689 *  0.888691 *  0.635799 *   0.86902    1.000000    
     70 O     c    0.920493 *  0.803158 *  0.749386 *   0.86902    1.000000    
     71 O     c    0.000039 *  0.796243 *  0.002362 *   0.86902    1.000000    
     72 O     c    0.982196 *  0.889313 *  0.112515 *   0.86902    1.000000    
     73 O     c    0.600168 *  0.887856 *  0.639189 *   0.86902    1.000000    
     74 O     c    0.589696 *  0.794174 *  0.751235 *   0.86902    1.000000    
     75 O     c    0.666020 *  0.798468 *  0.005765 *   0.86902    1.000000    
     76 O     c    0.754524 *  0.891420 *  0.113735 *   0.86902    1.000000    
     77 O     c    0.937342 *  0.783312 *  0.127008 *   0.86902    1.000000    
     78 O     c    0.779595 *  0.782874 *  0.662603 *   0.86902    1.000000    
     79 O     c    0.820674 *  0.800746 *  0.501372 *   0.86902    1.000000    
     80 O     c    0.762024 *  0.805250 *  0.258566 *   0.86902    1.000000    
     81 O     c    0.642803 *  0.784112 *  0.605781 *   0.86902    1.000000    
     82 O     c    0.812213 *  0.792390 *  0.108548 *   0.86902    1.000000    
     83 O     c    0.500039 *  0.804825 *  0.502362 *   0.86902    1.000000    
     84 Si    c    0.912169 *  0.934029 *  0.027033 *   4.00000    1.000000    
     85 Si    c    0.811154 *  0.934676 *  0.724780 *   4.00000    1.000000    
     86 Si    c    0.667292 *  0.934547 *  0.725215 *   4.00000    1.000000    
     87 Si    c    0.768412 *  0.934523 *  0.027062 *   4.00000    1.000000    
     88 Si    c    0.834499 *  0.818358 *  0.636708 *   4.00000    1.000000    
     89 Si    c    0.000068 *  0.818616 *  0.880821 *   4.00000    1.000000    
     90 Si    c    0.583982 *  0.817407 *  0.625303 *   4.00000    1.000000    
     91 Si    c    0.626530 *  0.755549 *  0.880922 *   4.00000    1.000000    
     92 Si    c    0.748914 *  0.820471 *  0.122756 *   4.00000    1.000000    
     93 Si    c    0.790678 *  0.760050 *  0.376494 *   4.00000    1.000000    
     94 O     c    0.130907 *  0.916169 *  0.129014 *   0.86902    1.000000    
     95 O     c    0.274386 *  0.931951 *  0.320282 *   0.86902    1.000000    
     96 O     c    0.288904 *  0.916723 *  0.128561 *   0.86902    1.000000    
     97 O     c    0.145785 *  0.929095 *  0.935784 *   0.86902    1.000000    
     98 O     c    0.180389 *  0.888691 *  0.368924 *   0.86902    1.000000    
     99 O     c    0.079585 *  0.803158 *  0.255337 *   0.86902    1.000000    
    100 O     c    0.017882 *  0.889313 *  0.892209 *   0.86902    1.000000    
    101 O     c    0.399910 *  0.887856 *  0.365535 *   0.86902    1.000000    
    102 O     c    0.410381 *  0.794174 *  0.253488 *   0.86902    1.000000    
    103 O     c    0.334057 *  0.798468 *  0.998959 *   0.86902    1.000000    
    104 O     c    0.245554 *  0.891420 *  0.890988 *   0.86902    1.000000    
    105 O     c    0.062736 *  0.783312 *  0.877716 *   0.86902    1.000000    
    106 O     c    0.220482 *  0.782874 *  0.342120 *   0.86902    1.000000    
    107 O     c    0.179404 *  0.800746 *  0.503351 *   0.86902    1.000000    
    108 O     c    0.238054 *  0.805250 *  0.746157 *   0.86902    1.000000    
    109 O     c    0.357275 *  0.784112 *  0.398942 *   0.86902    1.000000    
    110 O     c    0.187864 *  0.792390 *  0.896176 *   0.86902    1.000000    
    111 Si    c    0.087909 *  0.934029 *  0.977690 *   4.00000    1.000000    
    112 Si    c    0.188924 *  0.934676 *  0.279944 *   4.00000    1.000000    
    113 Si    c    0.332786 *  0.934547 *  0.279508 *   4.00000    1.000000    
    114 Si    c    0.231666 *  0.934523 *  0.977661 *   4.00000    1.000000    
    115 Si    c    0.165579 *  0.818358 *  0.368015 *   4.00000    1.000000    
    116 Si    c    0.000010 *  0.818616 *  0.123903 *   4.00000    1.000000    
    117 Si    c    0.416095 *  0.817407 *  0.379421 *   4.00000    1.000000    
    118 Si    c    0.373548 *  0.755549 *  0.123802 *   4.00000    1.000000    
    119 Si    c    0.251164 *  0.820471 *  0.881968 *   4.00000    1.000000    
    120 Si    c    0.209400 *  0.760050 *  0.628230 *   4.00000    1.000000    
    121 O     c    0.630907 *  0.586074 *  0.129014 *   0.86902    1.000000    
    122 O     c    0.774386 *  0.570292 *  0.320282 *   0.86902    1.000000    
    123 O     c    0.788904 *  0.585520 *  0.128561 *   0.86902    1.000000    
    124 O     c    0.645785 *  0.573149 *  0.935784 *   0.86902    1.000000    
    125 O     c    0.680389 *  0.613552 *  0.368924 *   0.86902    1.000000    
    126 O     c    0.579585 *  0.699085 *  0.255337 *   0.86902    1.000000    
    127 O     c    0.500039 *  0.706000 *  0.002362 *   0.86902    1.000000    
    128 O     c    0.517882 *  0.612931 *  0.892209 *   0.86902    1.000000    
    129 O     c    0.899910 *  0.614387 *  0.365535 *   0.86902    1.000000    
    130 O     c    0.910381 *  0.708070 *  0.253488 *   0.86902    1.000000    
    131 O     c    0.834057 *  0.703775 *  0.998959 *   0.86902    1.000000    
    132 O     c    0.745554 *  0.610824 *  0.890988 *   0.86902    1.000000    
    133 O     c    0.562736 *  0.718932 *  0.877716 *   0.86902    1.000000    
    134 O     c    0.867074 *  0.501122 *  0.304153 *   0.86902    1.000000    
    135 O     c    0.671136 *  0.501122 *  0.304069 *   0.86902    1.000000    
    136 O     c    0.720482 *  0.719369 *  0.342120 *   0.86902    1.000000    
    137 O     c    0.679404 *  0.701497 *  0.503351 *   0.86902    1.000000    
    138 O     c    0.738054 *  0.696994 *  0.746157 *   0.86902    1.000000    
    139 O     c    0.747725 *  0.501122 *  0.953423 *   0.86902    1.000000    
    140 O     c    0.555647 *  0.501122 *  0.953376 *   0.86902    1.000000    
    141 O     c    0.857275 *  0.718131 *  0.398942 *   0.86902    1.000000    
    142 O     c    0.687864 *  0.709854 *  0.896176 *   0.86902    1.000000    
    143 O     c    0.000039 *  0.697418 *  0.502362 *   0.86902    1.000000    
    144 Si    c    0.587909 *  0.568214 *  0.977690 *   4.00000    1.000000    
    145 Si    c    0.688924 *  0.567568 *  0.279944 *   4.00000    1.000000    
    146 Si    c    0.832786 *  0.567697 *  0.279508 *   4.00000    1.000000    
    147 Si    c    0.731666 *  0.567721 *  0.977661 *   4.00000    1.000000    
    148 Si    c    0.665579 *  0.683885 *  0.368015 *   4.00000    1.000000    
    149 Si    c    0.500010 *  0.683628 *  0.123903 *   4.00000    1.000000    
    150 Si    c    0.916095 *  0.684836 *  0.379421 *   4.00000    1.000000    
    151 Si    c    0.873548 *  0.746694 *  0.123802 *   4.00000    1.000000    
    152 Si    c    0.751164 *  0.681772 *  0.881968 *   4.00000    1.000000    
    153 Si    c    0.709400 *  0.742193 *  0.628230 *   4.00000    1.000000    
    154 O     c    0.369171 *  0.586074 *  0.875710 *   0.86902    1.000000    
    155 O     c    0.225691 *  0.570292 *  0.684441 *   0.86902    1.000000    
    156 O     c    0.211174 *  0.585520 *  0.876162 *   0.86902    1.000000    
    157 O     c    0.354293 *  0.573149 *  0.068939 *   0.86902    1.000000    
    158 O     c    0.319689 *  0.613552 *  0.635799 *   0.86902    1.000000    
    159 O     c    0.420493 *  0.699085 *  0.749386 *   0.86902    1.000000    
    160 O     c    0.482196 *  0.612931 *  0.112515 *   0.86902    1.000000    
    161 O     c    0.100168 *  0.614387 *  0.639189 *   0.86902    1.000000    
    162 O     c    0.089696 *  0.708070 *  0.751235 *   0.86902    1.000000    
    163 O     c    0.166020 *  0.703775 *  0.005765 *   0.86902    1.000000    
    164 O     c    0.254524 *  0.610824 *  0.113735 *   0.86902    1.000000    
    165 O     c    0.437342 *  0.718932 *  0.127008 *   0.86902    1.000000    
    166 O     c    0.133004 *  0.501122 *  0.700571 *   0.86902    1.000000    
    167 O     c    0.328942 *  0.501122 *  0.700654 *   0.86902    1.000000    
    168 O     c    0.279595 *  0.719369 *  0.662603 *   0.86902    1.000000    
    169 O     c    0.320674 *  0.701497 *  0.501372 *   0.86902    1.000000    
    170 O     c    0.262024 *  0.696994 *  0.258566 *   0.86902    1.000000    
    171 O     c    0.252353 *  0.501122 *  0.051300 *   0.86902    1.000000    
    172 O     c    0.444431 *  0.501122 *  0.051348 *   0.86902    1.000000    
    173 O     c    0.142803 *  0.718131 *  0.605781 *   0.86902    1.000000    
    174 O     c    0.312213 *  0.709854 *  0.108548 *   0.86902    1.000000    
    175 Si    c    0.412169 *  0.568214 *  0.027033 *   4.00000    1.000000    
    176 Si    c    0.311154 *  0.567568 *  0.724780 *   4.00000    1.000000    
    177 Si    c    0.167292 *  0.567697 *  0.725215 *   4.00000    1.000000    
    178 Si    c    0.268412 *  0.567721 *  0.027062 *   4.00000    1.000000    
    179 Si    c    0.334499 *  0.683885 *  0.636708 *   4.00000    1.000000    
    180 Si    c    0.500068 *  0.683628 *  0.880821 *   4.00000    1.000000    
    181 Si    c    0.083982 *  0.684836 *  0.625303 *   4.00000    1.000000    
    182 Si    c    0.126530 *  0.746694 *  0.880922 *   4.00000    1.000000    
    183 Si    c    0.248914 *  0.681772 *  0.122756 *   4.00000    1.000000    
    184 Si    c    0.290678 *  0.742193 *  0.376494 *   4.00000    1.000000    
    185 O     c    0.369171 *  0.416169 *  0.875710 *   0.86902    1.000000    
    186 O     c    0.225691 *  0.431951 *  0.684441 *   0.86902    1.000000    
    187 O     c    0.211174 *  0.416724 *  0.876162 *   0.86902    1.000000    
    188 O     c    0.354293 *  0.429095 *  0.068939 *   0.86902    1.000000    
    189 O     c    0.319689 *  0.388691 *  0.635799 *   0.86902    1.000000    
    190 O     c    0.420493 *  0.303158 *  0.749386 *   0.86902    1.000000    
    191 O     c    0.500039 *  0.296243 *  0.002362 *   0.86902    1.000000    
    192 O     c    0.482196 *  0.389313 *  0.112515 *   0.86902    1.000000    
    193 O     c    0.100168 *  0.387856 *  0.639189 *   0.86902    1.000000    
    194 O     c    0.089696 *  0.294174 *  0.751235 *   0.86902    1.000000    
    195 O     c    0.166020 *  0.298468 *  0.005765 *   0.86902    1.000000    
    196 O     c    0.254524 *  0.391420 *  0.113735 *   0.86902    1.000000    
    197 O     c    0.437342 *  0.283312 *  0.127008 *   0.86902    1.000000    
    198 O     c    0.279595 *  0.282874 *  0.662603 *   0.86902    1.000000    
    199 O     c    0.320674 *  0.300746 *  0.501372 *   0.86902    1.000000    
    200 O     c    0.262024 *  0.305250 *  0.258566 *   0.86902    1.000000    
    201 O     c    0.142803 *  0.284112 *  0.605781 *   0.86902    1.000000    
    202 O     c    0.312213 *  0.292390 *  0.108548 *   0.86902    1.000000    
    203 O     c    0.000039 *  0.304825 *  0.502362 *   0.86902    1.000000    
    204 Si    c    0.412169 *  0.434029 *  0.027033 *   4.00000    1.000000    
    205 Si    c    0.311154 *  0.434676 *  0.724780 *   4.00000    1.000000    
    206 Si    c    0.167292 *  0.434547 *  0.725215 *   4.00000    1.000000    
    207 Si    c    0.268412 *  0.434523 *  0.027062 *   4.00000    1.000000    
    208 Si    c    0.334499 *  0.318358 *  0.636708 *   4.00000    1.000000    
    209 Si    c    0.500068 *  0.318616 *  0.880821 *   4.00000    1.000000    
    210 Si    c    0.083982 *  0.317408 *  0.625303 *   4.00000    1.000000    
    211 Si    c    0.126530 *  0.255549 *  0.880922 *   4.00000    1.000000    
    212 Si    c    0.248914 *  0.320471 *  0.122756 *   4.00000    1.000000    
    213 Si    c    0.290678 *  0.260050 *  0.376494 *   4.00000    1.000000    
    214 O     c    0.630907 *  0.416169 *  0.129014 *   0.86902    1.000000    
    215 O     c    0.774386 *  0.431951 *  0.320282 *   0.86902    1.000000    
    216 O     c    0.788904 *  0.416724 *  0.128561 *   0.86902    1.000000    
    217 O     c    0.645785 *  0.429095 *  0.935784 *   0.86902    1.000000    
    218 O     c    0.680389 *  0.388691 *  0.368924 *   0.86902    1.000000    
    219 O     c    0.579585 *  0.303158 *  0.255337 *   0.86902    1.000000    
    220 O     c    0.517882 *  0.389313 *  0.892209 *   0.86902    1.000000    
    221 O     c    0.899910 *  0.387856 *  0.365535 *   0.86902    1.000000    
    222 O     c    0.910381 *  0.294174 *  0.253488 *   0.86902    1.000000    
    223 O     c    0.834057 *  0.298468 *  0.998959 *   0.86902    1.000000    
    224 O     c    0.745554 *  0.391420 *  0.890988 *   0.86902    1.000000    
    225 O     c    0.562736 *  0.283312 *  0.877716 *   0.86902    1.000000    
    226 O     c    0.720482 *  0.282874 *  0.342120 *   0.86902    1.000000    
    227 O     c    0.679404 *  0.300746 *  0.503351 *   0.86902    1.000000    
    228 O     c    0.738054 *  0.305250 *  0.746157 *   0.86902    1.000000    
    229 O     c    0.857275 *  0.284112 *  0.398942 *   0.86902    1.000000    
    230 O     c    0.687864 *  0.292390 *  0.896176 *   0.86902    1.000000    
    231 Si    c    0.587909 *  0.434029 *  0.977690 *   4.00000    1.000000    
    232 Si    c    0.688924 *  0.434676 *  0.279944 *   4.00000    1.000000    
    233 Si    c    0.832786 *  0.434547 *  0.279508 *   4.00000    1.000000    
    234 Si    c    0.731666 *  0.434523 *  0.977661 *   4.00000    1.000000    
    235 Si    c    0.665579 *  0.318358 *  0.368015 *   4.00000    1.000000    
    236 Si    c    0.500010 *  0.318616 *  0.123903 *   4.00000    1.000000    
    237 Si    c    0.916095 *  0.317408 *  0.379421 *   4.00000    1.000000    
    238 Si    c    0.873548 *  0.255549 *  0.123802 *   4.00000    1.000000    
    239 Si    c    0.751164 *  0.320471 *  0.881968 *   4.00000    1.000000    
    240 Si    c    0.709400    0.260050    0.628230     4.00000    1.000000    
    241 O     s    0.130907 *  0.086074 *  0.129014 *  -2.86902    1.000000    
    242 O     s    0.274386 *  0.070292 *  0.320282 *  -2.86902    1.000000    
    243 O     s    0.288904 *  0.085520 *  0.128561 *  -2.86902    1.000000    
    244 O     s    0.145785 *  0.073149 *  0.935784 *  -2.86902    1.000000    
    245 O     s    0.180389 *  0.113552 *  0.368924 *  -2.86902    1.000000    
    246 O     s    0.079585 *  0.199085 *  0.255337 *  -2.86902    1.000000    
    247 O     s    0.000039 *  0.206000 *  0.002362 *  -2.86902    1.000000    
    248 O     s    0.017882 *  0.112931 *  0.892209 *  -2.86902    1.000000    
    249 O     s    0.399910 *  0.114387 *  0.365535 *  -2.86902    1.000000    
    250 O     s    0.410381 *  0.208070 *  0.253488 *  -2.86902    1.000000    
    251 O     s    0.334057 *  0.203775 *  0.998959 *  -2.86902    1.000000    
    252 O     s    0.245554 *  0.110824 *  0.890988 *  -2.86902    1.000000    
    253 O     s    0.062736 *  0.218932 *  0.877716 *  -2.86902    1.000000    
    254 O     s    0.367074 *  0.001122 *  0.304153 *  -2.86902    1.000000    
    255 O     s    0.171136 *  0.001122 *  0.304069 *  -2.86902    1.000000    
    256 O     s    0.220482 *  0.219369 *  0.342120 *  -2.86902    1.000000    
    257 O     s    0.179404 *  0.201497 *  0.503351 *  -2.86902    1.000000    
    258 O     s    0.238054 *  0.196994 *  0.746157 *  -2.86902    1.000000    
    259 O     s    0.247725 *  0.001122 *  0.953423 *  -2.86902    1.000000    
    260 O     s    0.055647 *  0.001122 *  0.953376 *  -2.86902    1.000000    
    261 O     s    0.357275 *  0.218131 *  0.398942 *  -2.86902    1.000000    
    262 O     s    0.187864 *  0.209854 *  0.896176 *  -2.86902    1.000000    
    263 O     s    0.500039 *  0.197418 *  0.502362 *  -2.86902    1.000000    
    264 O     s    0.869171 *  0.086074 *  0.875710 *  -2.86902    1.000000    
    265 O     s    0.725691 *  0.070292 *  0.684441 *  -2.86902    1.000000    
    266 O     s    0.711174 *  0.085520 *  0.876162 *  -2.86902    1.000000    
    267 O     s    0.854293 *  0.073149 *  0.068939 *  -2.86902    1.000000    
    268 O     s    0.819689 *  0.113552 *  0.635799 *  -2.86902    1.000000    
    269 O     s    0.920493 *  0.199085 *  0.749386 *  -2.86902    1.000000    
    270 O     s    0.982196 *  0.112931 *  0.112515 *  -2.86902    1.000000    
    271 O     s    0.600168 *  0.114387 *  0.639189 *  -2.86902    1.000000    
    272 O     s    0.589696 *  0.208070 *  0.751235 *  -2.86902    1.000000    
    273 O     s    0.666020 *  0.203775 *  0.005765 *  -2.86902    1.000000    
    274 O     s    0.754524 *  0.110824 *  0.113735 *  -2.86902    1.000000    
    275 O     s    0.937342 *  0.218932 *  0.127008 *  -2.86902    1.000000    
    276 O     s    0.633004 *  0.001122 *  0.700571 *  -2.86902    1.000000    
    277 O     s    0.828942 *  0.001122 *  0.700654 *  -2.86902    1.000000    
    278 O     s    0.779595 *  0.219369 *  0.662603 *  -2.86902    1.000000    
    279 O     s    0.820674 *  0.201497 *  0.501372 *  -2.86902    1.000000    
    280 O     s    0.762024 *  0.196994 *  0.258566 *  -2.86902    1.000000    
    281 O     s    0.752353 *  0.001122 *  0.051300 *  -2.86902    1.000000    
    282 O     s    0.944431 *  0.001122 *  0.051348 *  -2.86902    1.000000    
    283 O     s    0.642803 *  0.218131 *  0.605781 *  -2.86902    1.000000    
    284 O     s    0.812213 *  0.209854 *  0.108548 *  -2.86902    1.000000    
    285 O     s    0.869171 *  0.916169 *  0.875710 *  -2.86902    1.000000    
    286 O     s    0.725691 *  0.931951 *  0.684441 *  -2.86902    1.000000    
    287 O     s    0.711174 *  0.916723 *  0.876162 *  -2.86902    1.000000    
    288 O     s    0.854293 *  0.929095 *  0.068939 *  -2.86902    1.000000    
    289 O     s    0.819689 *  0.888691 *  0.635799 *  -2.86902    1.000000    
    290 O     s    0.920493 *  0.803158 *  0.749386 *  -2.86902    1.000000    
    291 O     s    0.000039 *  0.796243 *  0.002362 *  -2.86902    1.000000    
    292 O     s    0.982196 *  0.889313 *  0.112515 *  -2.86902    1.000000    
    293 O     s    0.600168 *  0.887856 *  0.639189 *  -2.86902    1.000000    
    294 O     s    0.589696 *  0.794174 *  0.751235 *  -2.86902    1.000000    
    295 O     s    0.666020 *  0.798468 *  0.005765 *  -2.86902    1.000000    
    296 O     s    0.754524 *  0.891420 *  0.113735 *  -2.86902    1.000000    
    297 O     s    0.937342 *  0.783312 *  0.127008 *  -2.86902    1.000000    
    298 O     s    0.779595 *  0.782874 *  0.662603 *  -2.86902    1.000000    
    299 O     s    0.820674 *  0.800746 *  0.501372 *  -2.86902    1.000000    
    300 O     s    0.762024 *  0.805250 *  0.258566 *  -2.86902    1.000000    
    301 O     s    0.642803 *  0.784112 *  0.605781 *  -2.86902    1.000000    
    302 O     s    0.812213 *  0.792390 *  0.108548 *  -2.86902    1.000000    
    303 O     s    0.500039 *  0.804825 *  0.502362 *  -2.86902    1.000000    
    304 O     s    0.130907 *  0.916169 *  0.129014 *  -2.86902    1.000000    
    305 O     s    0.274386 *  0.931951 *  0.320282 *  -2.86902    1.000000    
    306 O     s    0.288904 *  0.916723 *  0.128561 *  -2.86902    1.000000    
    307 O     s    0.145785 *  0.929095 *  0.935784 *  -2.86902    1.000000    
    308 O     s    0.180389 *  0.888691 *  0.368924 *  -2.86902    1.000000    
    309 O     s    0.079585 *  0.803158 *  0.255337 *  -2.86902    1.000000    
    310 O     s    0.017882 *  0.889313 *  0.892209 *  -2.86902    1.000000    
    311 O     s    0.399910 *  0.887856 *  0.365535 *  -2.86902    1.000000    
    312 O     s    0.410381 *  0.794174 *  0.253488 *  -2.86902    1.000000    
    313 O     s    0.334057 *  0.798468 *  0.998959 *  -2.86902    1.000000    
    314 O     s    0.245554 *  0.891420 *  0.890988 *  -2.86902    1.000000    
    315 O     s    0.062736 *  0.783312 *  0.877716 *  -2.86902    1.000000    
    316 O     s    0.220482 *  0.782874 *  0.342120 *  -2.86902    1.000000    
    317 O     s    0.179404 *  0.800746 *  0.503351 *  -2.86902    1.000000    
    318 O     s    0.238054 *  0.805250 *  0.746157 *  -2.86902    1.000000    
    319 O     s    0.357275 *  0.784112 *  0.398942 *  -2.86902    1.000000    
    320 O     s    0.187864 *  0.792390 *  0.896176 *  -2.86902    1.000000    
    321 O     s    0.630907 *  0.586074 *  0.129014 *  -2.86902    1.000000    
    322 O     s    0.774386 *  0.570292 *  0.320282 *  -2.86902    1.000000    
    323 O     s    0.788904 *  0.585520 *  0.128561 *  -2.86902    1.000000    
    324 O     s    0.645785 *  0.573149 *  0.935784 *  -2.86902    1.000000    
    325 O     s    0.680389 *  0.613552 *  0.368924 *  -2.86902    1.000000    
    326 O     s    0.579585 *  0.699085 *  0.255337 *  -2.86902    1.000000    
    327 O     s    0.500039 *  0.706000 *  0.002362 *  -2.86902    1.000000    
    328 O     s    0.517882 *  0.612931 *  0.892209 *  -2.86902    1.000000    
    329 O     s    0.899910 *  0.614387 *  0.365535 *  -2.86902    1.000000    
    330 O     s    0.910381 *  0.708070 *  0.253488 *  -2.86902    1.000000    
    331 O     s    0.834057 *  0.703775 *  0.998959 *  -2.86902    1.000000    
    332 O     s    0.745554 *  0.610824 *  0.890988 *  -2.86902    1.000000    
    333 O     s    0.562736 *  0.718932 *  0.877716 *  -2.86902    1.000000    
    334 O     s    0.867074 *  0.501122 *  0.304153 *  -2.86902    1.000000    
    335 O     s    0.671136 *  0.501122 *  0.304069 *  -2.86902    1.000000    
    336 O     s    0.720482 *  0.719369 *  0.342120 *  -2.86902    1.000000    
    337 O     s    0.679404 *  0.701497 *  0.503351 *  -2.86902    1.000000    
    338 O     s    0.738054 *  0.696994 *  0.746157 *  -2.86902    1.000000    
    339 O     s    0.747725 *  0.501122 *  0.953423 *  -2.86902    1.000000    
    340 O     s    0.555647 *  0.501122 *  0.953376 *  -2.86902    1.000000    
    341 O     s    0.857275 *  0.718131 *  0.398942 *  -2.86902    1.000000    
    342 O     s    0.687864 *  0.709854 *  0.896176 *  -2.86902    1.000000    
    343 O     s    0.000039 *  0.697418 *  0.502362 *  -2.86902    1.000000    
    344 O     s    0.369171 *  0.586074 *  0.875710 *  -2.86902    1.000000    
    345 O     s    0.225691 *  0.570292 *  0.684441 *  -2.86902    1.000000    
    346 O     s    0.211174 *  0.585520 *  0.876162 *  -2.86902    1.000000    
    347 O     s    0.354293 *  0.573149 *  0.068939 *  -2.86902    1.000000    
    348 O     s    0.319689 *  0.613552 *  0.635799 *  -2.86902    1.000000    
    349 O     s    0.420493 *  0.699085 *  0.749386 *  -2.86902    1.000000    
    350 O     s    0.482196 *  0.612931 *  0.112515 *  -2.86902    1.000000    
    351 O     s    0.100168 *  0.614387 *  0.639189 *  -2.86902    1.000000    
    352 O     s    0.089696 *  0.708070 *  0.751235 *  -2.86902    1.000000    
    353 O     s    0.166020 *  0.703775 *  0.005765 *  -2.86902    1.000000    
    354 O     s    0.254524 *  0.610824 *  0.113735 *  -2.86902    1.000000    
    355 O     s    0.437342 *  0.718932 *  0.127008 *  -2.86902    1.000000    
    356 O     s    0.133004 *  0.501122 *  0.700571 *  -2.86902    1.000000    
    357 O     s    0.328942 *  0.501122 *  0.700654 *  -2.86902    1.000000    
    358 O     s    0.279595 *  0.719369 *  0.662603 *  -2.86902    1.000000    
    359 O     s    0.320674 *  0.701497 *  0.501372 *  -2.86902    1.000000    
    360 O     s    0.262024 *  0.696994 *  0.258566 *  -2.86902    1.000000    
    361 O     s    0.252353 *  0.501122 *  0.051300 *  -2.86902    1.000000    
    362 O     s    0.444431 *  0.501122 *  0.051348 *  -2.86902    1.000000    
    363 O     s    0.142803 *  0.718131 *  0.605781 *  -2.86902    1.000000    
    364 O     s    0.312213 *  0.709854 *  0.108548 *  -2.86902    1.000000    
    365 O     s    0.369171 *  0.416169 *  0.875710 *  -2.86902    1.000000    
    366 O     s    0.225691 *  0.431951 *  0.684441 *  -2.86902    1.000000    
    367 O     s    0.211174 *  0.416724 *  0.876162 *  -2.86902    1.000000    
    368 O     s    0.354293 *  0.429095 *  0.068939 *  -2.86902    1.000000    
    369 O     s    0.319689 *  0.388691 *  0.635799 *  -2.86902    1.000000    
    370 O     s    0.420493 *  0.303158 *  0.749386 *  -2.86902    1.000000    
    371 O     s    0.500039 *  0.296243 *  0.002362 *  -2.86902    1.000000    
    372 O     s    0.482196 *  0.389313 *  0.112515 *  -2.86902    1.000000    
    373 O     s    0.100168 *  0.387856 *  0.639189 *  -2.86902    1.000000    
    374 O     s    0.089696 *  0.294174 *  0.751235 *  -2.86902    1.000000    
    375 O     s    0.166020 *  0.298468 *  0.005765 *  -2.86902    1.000000    
    376 O     s    0.254524 *  0.391420 *  0.113735 *  -2.86902    1.000000    
    377 O     s    0.437342 *  0.283312 *  0.127008 *  -2.86902    1.000000    
    378 O     s    0.279595 *  0.282874 *  0.662603 *  -2.86902    1.000000    
    379 O     s    0.320674 *  0.300746 *  0.501372 *  -2.86902    1.000000    
    380 O     s    0.262024 *  0.305250 *  0.258566 *  -2.86902    1.000000    
    381 O     s    0.142803 *  0.284112 *  0.605781 *  -2.86902    1.000000    
    382 O     s    0.312213 *  0.292390 *  0.108548 *  -2.86902    1.000000    
    383 O     s    0.000039 *  0.304825 *  0.502362 *  -2.86902    1.000000    
    384 O     s    0.630907 *  0.416169 *  0.129014 *  -2.86902    1.000000    
    385 O     s    0.774386 *  0.431951 *  0.320282 *  -2.86902    1.000000    
    386 O     s    0.788904 *  0.416724 *  0.128561 *  -2.86902    1.000000    
    387 O     s    0.645785 *  0.429095 *  0.935784 *  -2.86902    1.000000    
    388 O     s    0.680389 *  0.388691 *  0.368924 *  -2.86902    1.000000    
    389 O     s    0.579585 *  0.303158 *  0.255337 *  -2.86902    1.000000    
    390 O     s    0.517882 *  0.389313 *  0.892209 *  -2.86902    1.000000    
    391 O     s    0.899910 *  0.387856 *  0.365535 *  -2.86902    1.000000    
    392 O     s    0.910381 *  0.294174 *  0.253488 *  -2.86902    1.000000    
    393 O     s    0.834057 *  0.298468 *  0.998959 *  -2.86902    1.000000    
    394 O     s    0.745554 *  0.391420 *  0.890988 *  -2.86902    1.000000    
    395 O     s    0.562736 *  0.283312 *  0.877716 *  -2.86902    1.000000    
    396 O     s    0.720482 *  0.282874 *  0.342120 *  -2.86902    1.000000    
    397 O     s    0.679404 *  0.300746 *  0.503351 *  -2.86902    1.000000    
    398 O     s    0.738054 *  0.305250 *  0.746157 *  -2.86902    1.000000    
    399 O     s    0.857275 *  0.284112 *  0.398942 *  -2.86902    1.000000    
    400 O     s    0.687864 *  0.292390 *  0.896176 *  -2.86902    1.000000    
--------------------------------------------------------------------------------



********************************************************************************
*  General input information                                                   *
********************************************************************************

  Species output for all configurations : 

--------------------------------------------------------------------------------
  Species    Type    Atomic    Atomic    Charge       Radii (Angs)     Library
                     Number     Mass       (e)     Cova   Ionic  VDW   Symbol
--------------------------------------------------------------------------------
    O        Core        8      16.00   0.869020   0.730  0.000  1.360 O        
    O        Shell       8       0.00  -2.869020   0.730  0.000  0.000 O        
    Si       Core       14      28.09   4.000000   1.200  0.000  2.100 Si       
--------------------------------------------------------------------------------


  Lattice summation method               =    Ewald          (3-D)
                                         =    Parry          (2-D)
                                         =    Saunders et al (1-D)
  Accuracy factor for lattice sums       =   12.000


  Analytic derivatives to be used

  Time limit = Infinity

  Maximum range for interatomic potentials =    100000.000000 Angstroms

  General interatomic potentials :

--------------------------------------------------------------------------------
Atom  Types   Potential      Parameter       Value         Units   Cutoffs(Ang)
  1     2                                                            Min /  Max 
--------------------------------------------------------------------------------
Si   c O    s Buckingham    Buckingham A     1283.9070    eV        0.000 10.000
                            Buckingham rho  0.32052000    Ang       
                            Buckingham C     10.661580    eV*Ang^6  
--------------------------------------------------------------------------------
O    s O    s Buckingham    Buckingham A     22764.000    eV        0.000 12.000
                            Buckingham rho  0.14900000    Ang       
                            Buckingham C     27.879000    eV*Ang^6  
--------------------------------------------------------------------------------
O    c O    s Spring (c-s)  Spring k 2       74.920000    eV*Ang^-2 0.000  1.100
                            Spring k 4       0.0000000    eV*Ang^-4 
--------------------------------------------------------------------------------

  General Three-body potentials :

--------------------------------------------------------------------------------
  Atoms       Potential      Parameter       Value         Units   Cutoffs(Ang)
  1 / 2 / 3                                                          Min /  Max 
--------------------------------------------------------------------------------
Si    core    Harmonic      Three-body cnst  2.0972400    eV*rad^-2 0.000  1.900
O     shel                  Three-body angl  109.47000    degrees   0.000  1.900
O     shel                  Three-body k4    0.0000000    eV*rad^-4 0.000  3.500
                            Three-body k3    0.0000000    eV*rad^-3 
--------------------------------------------------------------------------------
Si    core    Harmonic      Three-body cnst  2.0972400    eV*rad^-2 0.000  1.900
O     shel                  Three-body angl  109.47000    degrees   0.000  1.900
õ(    shel                  Three-body k4    0.0000000    eV*rad^-4 0.000  3.500
                            Three-body k3    0.0000000    eV*rad^-3 
--------------------------------------------------------------------------------
Si    core    Harmonic      Three-body cnst  2.0972400    eV*rad^-2 0.000  1.900
õ(    shel                  Three-body angl  109.47000    degrees   0.000  1.900
õ(    shel                  Three-body k4    0.0000000    eV*rad^-4 0.000  3.500
                            Three-body k3    0.0000000    eV*rad^-3 
--------------------------------------------------------------------------------

********************************************************************************
*  Output for configuration   1 : ReferenceDataBase/PTF                        *
********************************************************************************


  Components of energy : 

--------------------------------------------------------------------------------
  Interatomic potentials     =        2525.94823709 eV    
  Three-body potentials      =           0.30439260 eV    
  Monopole - monopole (real) =      -10025.08550812 eV    
  Monopole - monopole (recip)=       -2668.10473066 eV    
  Monopole - monopole (total)=      -12693.19023878 eV    
--------------------------------------------------------------------------------
  Total lattice energy       =      -10166.93760909 eV    
--------------------------------------------------------------------------------
  Total lattice energy       =         -980954.0634 kJ/(mole unit cells)
--------------------------------------------------------------------------------


  Number of variables =     1203

  Maximum number of calculations  =           500
  Maximum Hessian update interval =            10
  Maximum step size               =   0.100000000
  Maximum parameter tolerance     =   0.000010000
  Maximum function  tolerance     =   0.000010000
  Maximum gradient  tolerance     =   0.001000000
  Maximum gradient  component     =   0.010000000

  Cell parameters to be optimised using strains

  Newton-Raphson optimiser to be used

  BFGS hessian update to be used

  General 2-D hessian to be used

  Minimiser to switch to RFO
  When gradient norm is less than     0.080000

  Switch max step size to       0.30000000 when gnorm is less than     0.005000

  Dumpfile to be written after every cycle

  Start of bulk optimisation :

  Cycle:      0 Energy:    -10166.937609  Gnorm:      3.673972  CPU:    0.272
  ** Hessian calculated **
  Cycle:      1 Energy:    -10191.333042  Gnorm:      3.271251  CPU:    0.657
  ** Hessian calculated **
  Cycle:      2 Energy:    -10223.215299  Gnorm:      2.632612  CPU:    1.235
  ** Hessian calculated **
  Cycle:      3 Energy:    -10271.445350  Gnorm:      1.100215  CPU:    2.081
  ** Hessian calculated **
  Cycle:      4 Energy:    -10281.263895  Gnorm:      0.223172  CPU:    2.720
  Cycle:      5 Energy:    -10281.597429  Gnorm:      0.112969  CPU:    2.924
  Cycle:      6 Energy:    -10281.687559  Gnorm:      0.056514  CPU:    3.131
  ** Hessian has required structure
  Cycle:      7 Energy:    -10281.687589  Gnorm:      0.056445  CPU:    3.371
  ** Hessian has required structure
  Cycle:      8 Energy:    -10281.687611  Gnorm:      0.056488  CPU:    3.610
  ** Hessian has required structure
  Cycle:      9 Energy:    -10281.687627  Gnorm:      0.056487  CPU:    3.849
  ** Hessian has required structure
  ** Hessian has required structure
  Cycle:     10 Energy:    -10281.711717  Gnorm:      0.028286  CPU:    4.450
  ** Hessian has required structure
  Cycle:     11 Energy:    -10281.717982  Gnorm:      0.014174  CPU:    4.760
  ** Hessian has required structure
  Cycle:     12 Energy:    -10281.719479  Gnorm:      0.007089  CPU:    5.066
  ** Hessian has required structure
  Cycle:     13 Energy:    -10281.719879  Gnorm:      0.003543  CPU:    5.372
  ** Hessian has required structure
  Cycle:     14 Energy:    -10281.720162  Gnorm:      0.000285  CPU:    5.647
  ** Hessian has required structure


  **** Optimisation achieved ****


  Final energy =  -10281.72016290 eV      
  Final Gnorm  =       0.00002977

  Components of energy : 

--------------------------------------------------------------------------------
  Interatomic potentials     =        2788.67247049 eV    
  Three-body potentials      =           1.64477979 eV    
  Monopole - monopole (real) =       -9291.58857444 eV    
  Monopole - monopole (recip)=       -3780.44883874 eV    
  Monopole - monopole (total)=      -13072.03741318 eV    
--------------------------------------------------------------------------------
  Total lattice energy       =      -10281.72016290 eV    
--------------------------------------------------------------------------------
  Total lattice energy       =         -992028.8252 kJ/(mole unit cells)
--------------------------------------------------------------------------------

  Final fractional coordinates of atoms :

--------------------------------------------------------------------------------
   No.  Atomic        x           y          z          Radius
        Label       (Frac)      (Frac)     (Frac)       (Angs) 
--------------------------------------------------------------------------------
     1  O     c     0.130907    0.086074    0.129014    0.000000
     2  O     c     0.274386    0.070292    0.320282    0.000000
     3  O     c     0.288904    0.085520    0.128561    0.000000
     4  O     c     0.145785    0.073149    0.935784    0.000000
     5  O     c     0.180389    0.113552    0.368924    0.000000
     6  O     c     0.079585    0.199085    0.255337    0.000000
     7  O     c     0.000039    0.206000    0.002362    0.000000
     8  O     c     0.017882    0.112931    0.892209    0.000000
     9  O     c     0.399910    0.114387    0.365535    0.000000
    10  O     c     0.410381    0.208070    0.253488    0.000000
    11  O     c     0.334057    0.203775    0.998959    0.000000
    12  O     c     0.245554    0.110824    0.890988    0.000000
    13  O     c     0.062736    0.218932    0.877716    0.000000
    14  O     c     0.367074    0.001122    0.304153    0.000000
    15  O     c     0.171136    0.001122    0.304069    0.000000
    16  O     c     0.220482    0.219369    0.342120    0.000000
    17  O     c     0.179404    0.201497    0.503351    0.000000
    18  O     c     0.238054    0.196994    0.746157    0.000000
    19  O     c     0.247725    0.001122    0.953423    0.000000
    20  O     c     0.055647    0.001122    0.953376    0.000000
    21  O     c     0.357275    0.218131    0.398942    0.000000
    22  O     c     0.187864    0.209854    0.896176    0.000000
    23  O     c     0.500039    0.197418    0.502362    0.000000
    24  Si    c     0.087909    0.068214    0.977690    0.000000
    25  Si    c     0.188924    0.067568    0.279944    0.000000
    26  Si    c     0.332786    0.067696    0.279508    0.000000
    27  Si    c     0.231666    0.067721    0.977661    0.000000
    28  Si    c     0.165578    0.183885    0.368015    0.000000
    29  Si    c     0.000010    0.183628    0.123903    0.000000
    30  Si    c     0.416095    0.184836    0.379421    0.000000
    31  Si    c     0.373548    0.246694    0.123802    0.000000
    32  Si    c     0.251164    0.181772    0.881968    0.000000
    33  Si    c     0.209400    0.242193    0.628230    0.000000
    34  O     c     0.869171    0.086074    0.875710    0.000000
    35  O     c     0.725691    0.070292    0.684441    0.000000
    36  O     c     0.711174    0.085520    0.876162    0.000000
    37  O     c     0.854293    0.073149    0.068939    0.000000
    38  O     c     0.819689    0.113552    0.635799    0.000000
    39  O     c     0.920493    0.199085    0.749386    0.000000
    40  O     c     0.982196    0.112931    0.112515    0.000000
    41  O     c     0.600168    0.114387    0.639189    0.000000
    42  O     c     0.589696    0.208070    0.751235    0.000000
    43  O     c     0.666020    0.203775    0.005764    0.000000
    44  O     c     0.754524    0.110824    0.113735    0.000000
    45  O     c     0.937342    0.218932    0.127008    0.000000
    46  O     c     0.633004    0.001122    0.700571    0.000000
    47  O     c     0.828942    0.001122    0.700654    0.000000
    48  O     c     0.779595    0.219369    0.662603    0.000000
    49  O     c     0.820674    0.201497    0.501372    0.000000
    50  O     c     0.762024    0.196994    0.258566    0.000000
    51  O     c     0.752353    0.001122    0.051300    0.000000
    52  O     c     0.944431    0.001122    0.051348    0.000000
    53  O     c     0.642803    0.218131    0.605781    0.000000
    54  O     c     0.812213    0.209854    0.108548    0.000000
    55  Si    c     0.912169    0.068214    0.027033    0.000000
    56  Si    c     0.811154    0.067568    0.724780    0.000000
    57  Si    c     0.667292    0.067696    0.725215    0.000000
    58  Si    c     0.768412    0.067721    0.027062    0.000000
    59  Si    c     0.834499    0.183885    0.636708    0.000000
    60  Si    c     0.000068    0.183628    0.880821    0.000000
    61  Si    c     0.583982    0.184836    0.625303    0.000000
    62  Si    c     0.626530    0.246694    0.880922    0.000000
    63  Si    c     0.748914    0.181772    0.122755    0.000000
    64  Si    c     0.790678    0.242193    0.376493    0.000000
    65  O     c     0.869171    0.916169    0.875710    0.000000
    66  O     c     0.725691    0.931951    0.684441    0.000000
    67  O     c     0.711174    0.916724    0.876162    0.000000
    68  O     c     0.854293    0.929095    0.068939    0.000000
    69  O     c     0.819689    0.888691    0.635799    0.000000
    70  O     c     0.920493    0.803158    0.749386    0.000000
    71  O     c     0.000039    0.796243    0.002362    0.000000
    72  O     c     0.982196    0.889313    0.112515    0.000000
    73  O     c     0.600168    0.887856    0.639189    0.000000
    74  O     c     0.589696    0.794174    0.751235    0.000000
    75  O     c     0.666020    0.798468    0.005764    0.000000
    76  O     c     0.754524    0.891420    0.113735    0.000000
    77  O     c     0.937342    0.783312    0.127008    0.000000
    78  O     c     0.779595    0.782874    0.662603    0.000000
    79  O     c     0.820674    0.800746    0.501372    0.000000
    80  O     c     0.762024    0.805250    0.258566    0.000000
    81  O     c     0.642803    0.784112    0.605781    0.000000
    82  O     c     0.812213    0.792390    0.108548    0.000000
    83  O     c     0.500039    0.804825    0.502362    0.000000
    84  Si    c     0.912169    0.934029    0.027033    0.000000
    85  Si    c     0.811154    0.934676    0.724780    0.000000
    86  Si    c     0.667292    0.934547    0.725215    0.000000
    87  Si    c     0.768412    0.934523    0.027062    0.000000
    88  Si    c     0.834499    0.818358    0.636708    0.000000
    89  Si    c     0.000068    0.818616    0.880821    0.000000
    90  Si    c     0.583982    0.817408    0.625303    0.000000
    91  Si    c     0.626530    0.755549    0.880922    0.000000
    92  Si    c     0.748914    0.820471    0.122755    0.000000
    93  Si    c     0.790678    0.760050    0.376493    0.000000
    94  O     c     0.130907    0.916169    0.129014    0.000000
    95  O     c     0.274386    0.931951    0.320282    0.000000
    96  O     c     0.288904    0.916724    0.128561    0.000000
    97  O     c     0.145785    0.929095    0.935784    0.000000
    98  O     c     0.180389    0.888691    0.368924    0.000000
    99  O     c     0.079585    0.803158    0.255337    0.000000
   100  O     c     0.017882    0.889313    0.892209    0.000000
   101  O     c     0.399910    0.887856    0.365535    0.000000
   102  O     c     0.410381    0.794174    0.253488    0.000000
   103  O     c     0.334057    0.798468    0.998959    0.000000
   104  O     c     0.245554    0.891420    0.890988    0.000000
   105  O     c     0.062736    0.783312    0.877716    0.000000
   106  O     c     0.220482    0.782874    0.342120    0.000000
   107  O     c     0.179404    0.800746    0.503351    0.000000
   108  O     c     0.238054    0.805250    0.746157    0.000000
   109  O     c     0.357275    0.784112    0.398942    0.000000
   110  O     c     0.187864    0.792390    0.896176    0.000000
   111  Si    c     0.087909    0.934029    0.977690    0.000000
   112  Si    c     0.188924    0.934676    0.279944    0.000000
   113  Si    c     0.332786    0.934547    0.279508    0.000000
   114  Si    c     0.231666    0.934523    0.977661    0.000000
   115  Si    c     0.165578    0.818358    0.368015    0.000000
   116  Si    c     0.000010    0.818616    0.123903    0.000000
   117  Si    c     0.416095    0.817408    0.379421    0.000000
   118  Si    c     0.373548    0.755549    0.123802    0.000000
   119  Si    c     0.251164    0.820471    0.881968    0.000000
   120  Si    c     0.209400    0.760050    0.628230    0.000000
   121  O     c     0.630907    0.586074    0.129014    0.000000
   122  O     c     0.774386    0.570292    0.320282    0.000000
   123  O     c     0.788904    0.585520    0.128561    0.000000
   124  O     c     0.645785    0.573149    0.935784    0.000000
   125  O     c     0.680389    0.613552    0.368924    0.000000
   126  O     c     0.579585    0.699085    0.255337    0.000000
   127  O     c     0.500039    0.706000    0.002362    0.000000
   128  O     c     0.517882    0.612931    0.892209    0.000000
   129  O     c     0.899910    0.614387    0.365535    0.000000
   130  O     c     0.910381    0.708070    0.253488    0.000000
   131  O     c     0.834057    0.703775    0.998959    0.000000
   132  O     c     0.745554    0.610824    0.890988    0.000000
   133  O     c     0.562736    0.718932    0.877716    0.000000
   134  O     c     0.867074    0.501122    0.304153    0.000000
   135  O     c     0.671136    0.501122    0.304069    0.000000
   136  O     c     0.720482    0.719369    0.342120    0.000000
   137  O     c     0.679404    0.701497    0.503351    0.000000
   138  O     c     0.738054    0.696994    0.746157    0.000000
   139  O     c     0.747725    0.501122    0.953423    0.000000
   140  O     c     0.555647    0.501122    0.953376    0.000000
   141  O     c     0.857275    0.718131    0.398942    0.000000
   142  O     c     0.687864    0.709854    0.896176    0.000000
   143  O     c     0.000039    0.697418    0.502362    0.000000
   144  Si    c     0.587909    0.568214    0.977690    0.000000
   145  Si    c     0.688924    0.567568    0.279944    0.000000
   146  Si    c     0.832786    0.567696    0.279508    0.000000
   147  Si    c     0.731666    0.567721    0.977661    0.000000
   148  Si    c     0.665578    0.683885    0.368015    0.000000
   149  Si    c     0.500010    0.683628    0.123903    0.000000
   150  Si    c     0.916095    0.684836    0.379421    0.000000
   151  Si    c     0.873548    0.746694    0.123802    0.000000
   152  Si    c     0.751164    0.681772    0.881968    0.000000
   153  Si    c     0.709400    0.742193    0.628230    0.000000
   154  O     c     0.369171    0.586074    0.875710    0.000000
   155  O     c     0.225691    0.570292    0.684441    0.000000
   156  O     c     0.211174    0.585520    0.876162    0.000000
   157  O     c     0.354293    0.573149    0.068939    0.000000
   158  O     c     0.319689    0.613552    0.635799    0.000000
   159  O     c     0.420493    0.699085    0.749386    0.000000
   160  O     c     0.482196    0.612931    0.112515    0.000000
   161  O     c     0.100168    0.614387    0.639189    0.000000
   162  O     c     0.089696    0.708070    0.751235    0.000000
   163  O     c     0.166020    0.703775    0.005764    0.000000
   164  O     c     0.254524    0.610824    0.113735    0.000000
   165  O     c     0.437342    0.718932    0.127008    0.000000
   166  O     c     0.133004    0.501122    0.700571    0.000000
   167  O     c     0.328942    0.501122    0.700654    0.000000
   168  O     c     0.279595    0.719369    0.662603    0.000000
   169  O     c     0.320674    0.701497    0.501372    0.000000
   170  O     c     0.262024    0.696994    0.258566    0.000000
   171  O     c     0.252353    0.501122    0.051300    0.000000
   172  O     c     0.444431    0.501122    0.051348    0.000000
   173  O     c     0.142803    0.718131    0.605781    0.000000
   174  O     c     0.312213    0.709854    0.108548    0.000000
   175  Si    c     0.412169    0.568214    0.027033    0.000000
   176  Si    c     0.311154    0.567568    0.724780    0.000000
   177  Si    c     0.167292    0.567696    0.725215    0.000000
   178  Si    c     0.268412    0.567721    0.027062    0.000000
   179  Si    c     0.334499    0.683885    0.636708    0.000000
   180  Si    c     0.500068    0.683628    0.880821    0.000000
   181  Si    c     0.083982    0.684836    0.625303    0.000000
   182  Si    c     0.126530    0.746694    0.880922    0.000000
   183  Si    c     0.248914    0.681772    0.122755    0.000000
   184  Si    c     0.290678    0.742193    0.376493    0.000000
   185  O     c     0.369171    0.416169    0.875710    0.000000
   186  O     c     0.225691    0.431951    0.684441    0.000000
   187  O     c     0.211174    0.416724    0.876162    0.000000
   188  O     c     0.354293    0.429095    0.068939    0.000000
   189  O     c     0.319689    0.388691    0.635799    0.000000
   190  O     c     0.420493    0.303158    0.749386    0.000000
   191  O     c     0.500039    0.296243    0.002362    0.000000
   192  O     c     0.482196    0.389313    0.112515    0.000000
   193  O     c     0.100168    0.387856    0.639189    0.000000
   194  O     c     0.089696    0.294174    0.751235    0.000000
   195  O     c     0.166020    0.298468    0.005764    0.000000
   196  O     c     0.254524    0.391420    0.113735    0.000000
   197  O     c     0.437342    0.283312    0.127008    0.000000
   198  O     c     0.279595    0.282874    0.662603    0.000000
   199  O     c     0.320674    0.300746    0.501372    0.000000
   200  O     c     0.262024    0.305250    0.258566    0.000000
   201  O     c     0.142803    0.284112    0.605781    0.000000
   202  O     c     0.312213    0.292390    0.108548    0.000000
   203  O     c     0.000039    0.304825    0.502362    0.000000
   204  Si    c     0.412169    0.434029    0.027033    0.000000
   205  Si    c     0.311154    0.434676    0.724780    0.000000
   206  Si    c     0.167292    0.434547    0.725215    0.000000
   207  Si    c     0.268412    0.434523    0.027062    0.000000
   208  Si    c     0.334499    0.318358    0.636708    0.000000
   209  Si    c     0.500068    0.318616    0.880821    0.000000
   210  Si    c     0.083982    0.317408    0.625303    0.000000
   211  Si    c     0.126530    0.255549    0.880922    0.000000
   212  Si    c     0.248914    0.320471    0.122755    0.000000
   213  Si    c     0.290678    0.260050    0.376493    0.000000
   214  O     c     0.630907    0.416169    0.129014    0.000000
   215  O     c     0.774386    0.431951    0.320282    0.000000
   216  O     c     0.788904    0.416724    0.128561    0.000000
   217  O     c     0.645785    0.429095    0.935784    0.000000
   218  O     c     0.680389    0.388691    0.368924    0.000000
   219  O     c     0.579585    0.303158    0.255337    0.000000
   220  O     c     0.517882    0.389313    0.892209    0.000000
   221  O     c     0.899910    0.387856    0.365535    0.000000
   222  O     c     0.910381    0.294174    0.253488    0.000000
   223  O     c     0.834057    0.298468    0.998959    0.000000
   224  O     c     0.745554    0.391420    0.890988    0.000000
   225  O     c     0.562736    0.283312    0.877716    0.000000
   226  O     c     0.720482    0.282874    0.342120    0.000000
   227  O     c     0.679404    0.300746    0.503351    0.000000
   228  O     c     0.738054    0.305250    0.746157    0.000000
   229  O     c     0.857275    0.284112    0.398942    0.000000
   230  O     c     0.687864    0.292390    0.896176    0.000000
   231  Si    c     0.587909    0.434029    0.977690    0.000000
   232  Si    c     0.688924    0.434676    0.279944    0.000000
   233  Si    c     0.832786    0.434547    0.279508    0.000000
   234  Si    c     0.731666    0.434523    0.977661    0.000000
   235  Si    c     0.665578    0.318358    0.368015    0.000000
   236  Si    c     0.500010    0.318616    0.123903    0.000000
   237  Si    c     0.916095    0.317408    0.379421    0.000000
   238  Si    c     0.873548    0.255549    0.123802    0.000000
   239  Si    c     0.751164    0.320471    0.881968    0.000000
   240  Si    c     0.709400    0.260050    0.628230    0.000000
   241  O     s     0.132502    0.082255    0.128953    0.000000
   242  O     s     0.271346    0.069659    0.311144    0.000000
   243  O     s     0.287430    0.081663    0.128591    0.000000
   244  O     s     0.148815    0.071965    0.945082    0.000000
   245  O     s     0.179735    0.116015    0.358938    0.000000
   246  O     s     0.080299    0.195508    0.253097    0.000000
   247  O     s     0.000039    0.200949    0.002362    0.000000
   248  O     s     0.023744    0.115320    0.900465    0.000000
   249  O     s     0.394132    0.116779    0.357395    0.000000
   250  O     s     0.406788    0.209849    0.253035    0.000000
   251  O     s     0.329234    0.206072    0.999774    0.000000
   252  O     s     0.244619    0.113742    0.899628    0.000000
   253  O     s     0.062956    0.219109    0.878487    0.000000
   254  O     s     0.359833    0.001122    0.298920    0.000000
   255  O     s     0.174971    0.001122    0.298876    0.000000
   256  O     s     0.222338    0.219993    0.348996    0.000000
   257  O     s     0.181281    0.204172    0.501972    0.000000
   258  O     s     0.236298    0.200392    0.748539    0.000000
   259  O     s     0.244170    0.001122    0.958823    0.000000
   260  O     s     0.062543    0.001122    0.958558    0.000000
   261  O     s     0.356278    0.219164    0.394095    0.000000
   262  O     s     0.188057    0.211915    0.892908    0.000000
   263  O     s     0.500039    0.194451    0.502362    0.000000
   264  O     s     0.867575    0.082255    0.875770    0.000000
   265  O     s     0.728732    0.069659    0.693579    0.000000
   266  O     s     0.712648    0.081663    0.876133    0.000000
   267  O     s     0.851262    0.071965    0.059641    0.000000
   268  O     s     0.820343    0.116015    0.645785    0.000000
   269  O     s     0.919779    0.195508    0.751626    0.000000
   270  O     s     0.976334    0.115320    0.104258    0.000000
   271  O     s     0.605946    0.116779    0.647329    0.000000
   272  O     s     0.593289    0.209849    0.751688    0.000000
   273  O     s     0.670844    0.206072    0.004950    0.000000
   274  O     s     0.755459    0.113742    0.105095    0.000000
   275  O     s     0.937122    0.219109    0.126237    0.000000
   276  O     s     0.640245    0.001122    0.705803    0.000000
   277  O     s     0.825106    0.001122    0.705847    0.000000
   278  O     s     0.777739    0.219993    0.655727    0.000000
   279  O     s     0.818797    0.204172    0.502752    0.000000
   280  O     s     0.763780    0.200392    0.256184    0.000000
   281  O     s     0.755908    0.001122    0.045901    0.000000
   282  O     s     0.937534    0.001122    0.046165    0.000000
   283  O     s     0.643800    0.219164    0.610629    0.000000
   284  O     s     0.812021    0.211915    0.111815    0.000000
   285  O     s     0.867575    0.919989    0.875770    0.000000
   286  O     s     0.728732    0.932584    0.693579    0.000000
   287  O     s     0.712648    0.920581    0.876133    0.000000
   288  O     s     0.851262    0.930278    0.059641    0.000000
   289  O     s     0.820343    0.886228    0.645785    0.000000
   290  O     s     0.919779    0.806735    0.751626    0.000000
   291  O     s     0.000039    0.801295    0.002362    0.000000
   292  O     s     0.976334    0.886923    0.104258    0.000000
   293  O     s     0.605946    0.885465    0.647329    0.000000
   294  O     s     0.593289    0.792395    0.751688    0.000000
   295  O     s     0.670844    0.796171    0.004950    0.000000
   296  O     s     0.755459    0.888501    0.105095    0.000000
   297  O     s     0.937122    0.783134    0.126237    0.000000
   298  O     s     0.777739    0.782251    0.655727    0.000000
   299  O     s     0.818797    0.798072    0.502752    0.000000
   300  O     s     0.763780    0.801851    0.256184    0.000000
   301  O     s     0.643800    0.783079    0.610629    0.000000
   302  O     s     0.812021    0.790329    0.111815    0.000000
   303  O     s     0.500039    0.807792    0.502362    0.000000
   304  O     s     0.132502    0.919989    0.128953    0.000000
   305  O     s     0.271346    0.932584    0.311144    0.000000
   306  O     s     0.287430    0.920581    0.128591    0.000000
   307  O     s     0.148815    0.930278    0.945082    0.000000
   308  O     s     0.179735    0.886228    0.358938    0.000000
   309  O     s     0.080299    0.806735    0.253097    0.000000
   310  O     s     0.023744    0.886923    0.900465    0.000000
   311  O     s     0.394132    0.885465    0.357395    0.000000
   312  O     s     0.406789    0.792395    0.253035    0.000000
   313  O     s     0.329234    0.796171    0.999774    0.000000
   314  O     s     0.244619    0.888501    0.899628    0.000000
   315  O     s     0.062956    0.783134    0.878487    0.000000
   316  O     s     0.222338    0.782251    0.348996    0.000000
   317  O     s     0.181281    0.798072    0.501972    0.000000
   318  O     s     0.236298    0.801851    0.748539    0.000000
   319  O     s     0.356278    0.783079    0.394095    0.000000
   320  O     s     0.188057    0.790329    0.892908    0.000000
   321  O     s     0.632502    0.582255    0.128953    0.000000
   322  O     s     0.771346    0.569659    0.311144    0.000000
   323  O     s     0.787430    0.581663    0.128591    0.000000
   324  O     s     0.648815    0.571965    0.945082    0.000000
   325  O     s     0.679735    0.616015    0.358938    0.000000
   326  O     s     0.580299    0.695508    0.253097    0.000000
   327  O     s     0.500039    0.700949    0.002362    0.000000
   328  O     s     0.523744    0.615320    0.900465    0.000000
   329  O     s     0.894132    0.616779    0.357395    0.000000
   330  O     s     0.906788    0.709849    0.253035    0.000000
   331  O     s     0.829234    0.706072    0.999774    0.000000
   332  O     s     0.744619    0.613742    0.899628    0.000000
   333  O     s     0.562956    0.719109    0.878487    0.000000
   334  O     s     0.859833    0.501122    0.298920    0.000000
   335  O     s     0.674971    0.501122    0.298876    0.000000
   336  O     s     0.722338    0.719993    0.348996    0.000000
   337  O     s     0.681281    0.704172    0.501972    0.000000
   338  O     s     0.736298    0.700392    0.748539    0.000000
   339  O     s     0.744170    0.501122    0.958823    0.000000
   340  O     s     0.562543    0.501122    0.958558    0.000000
   341  O     s     0.856278    0.719164    0.394095    0.000000
   342  O     s     0.688057    0.711915    0.892908    0.000000
   343  O     s     0.000039    0.694451    0.502362    0.000000
   344  O     s     0.367575    0.582255    0.875770    0.000000
   345  O     s     0.228732    0.569659    0.693579    0.000000
   346  O     s     0.212648    0.581663    0.876133    0.000000
   347  O     s     0.351262    0.571965    0.059641    0.000000
   348  O     s     0.320343    0.616015    0.645785    0.000000
   349  O     s     0.419779    0.695508    0.751626    0.000000
   350  O     s     0.476334    0.615320    0.104258    0.000000
   351  O     s     0.105946    0.616779    0.647329    0.000000
   352  O     s     0.093289    0.709849    0.751688    0.000000
   353  O     s     0.170844    0.706072    0.004950    0.000000
   354  O     s     0.255459    0.613742    0.105095    0.000000
   355  O     s     0.437122    0.719109    0.126237    0.000000
   356  O     s     0.140245    0.501122    0.705803    0.000000
   357  O     s     0.325106    0.501122    0.705847    0.000000
   358  O     s     0.277739    0.719993    0.655727    0.000000
   359  O     s     0.318797    0.704172    0.502752    0.000000
   360  O     s     0.263780    0.700392    0.256184    0.000000
   361  O     s     0.255908    0.501122    0.045901    0.000000
   362  O     s     0.437534    0.501122    0.046165    0.000000
   363  O     s     0.143800    0.719164    0.610629    0.000000
   364  O     s     0.312021    0.711915    0.111815    0.000000
   365  O     s     0.367575    0.419989    0.875770    0.000000
   366  O     s     0.228732    0.432584    0.693579    0.000000
   367  O     s     0.212648    0.420581    0.876133    0.000000
   368  O     s     0.351262    0.430278    0.059641    0.000000
   369  O     s     0.320343    0.386228    0.645785    0.000000
   370  O     s     0.419779    0.306735    0.751626    0.000000
   371  O     s     0.500039    0.301295    0.002362    0.000000
   372  O     s     0.476334    0.386923    0.104258    0.000000
   373  O     s     0.105946    0.385465    0.647329    0.000000
   374  O     s     0.093289    0.292395    0.751688    0.000000
   375  O     s     0.170844    0.296171    0.004950    0.000000
   376  O     s     0.255459    0.388501    0.105095    0.000000
   377  O     s     0.437122    0.283134    0.126237    0.000000
   378  O     s     0.277739    0.282251    0.655727    0.000000
   379  O     s     0.318797    0.298072    0.502752    0.000000
   380  O     s     0.263780    0.301851    0.256184    0.000000
   381  O     s     0.143800    0.283079    0.610629    0.000000
   382  O     s     0.312021    0.290329    0.111815    0.000000
   383  O     s     0.000039    0.307792    0.502362    0.000000
   384  O     s     0.632502    0.419989    0.128953    0.000000
   385  O     s     0.771346    0.432584    0.311144    0.000000
   386  O     s     0.787430    0.420581    0.128591    0.000000
   387  O     s     0.648815    0.430278    0.945082    0.000000
   388  O     s     0.679735    0.386228    0.358938    0.000000
   389  O     s     0.580299    0.306735    0.253097    0.000000
   390  O     s     0.523744    0.386923    0.900465    0.000000
   391  O     s     0.894132    0.385465    0.357395    0.000000
   392  O     s     0.906789    0.292395    0.253035    0.000000
   393  O     s     0.829234    0.296171    0.999774    0.000000
   394  O     s     0.744619    0.388501    0.899628    0.000000
   395  O     s     0.562956    0.283134    0.878487    0.000000
   396  O     s     0.722338    0.282251    0.348996    0.000000
   397  O     s     0.681281    0.298072    0.501972    0.000000
   398  O     s     0.736298    0.301851    0.748539    0.000000
   399  O     s     0.856278    0.283079    0.394095    0.000000
   400  O     s     0.688057    0.290329    0.892908    0.000000
--------------------------------------------------------------------------------

  Final Cartesian lattice vectors (Angstroms) :

       21.443625    0.000000    0.000169
        0.000000   22.527136    0.000000
       -7.138879    0.000000   10.266093


  Final cell parameters and derivatives :

--------------------------------------------------------------------------------
       a           21.443625 Angstrom     dE/de1(xx)    -0.001601 eV/strain
       b           22.527136 Angstrom     dE/de2(yy)    -0.000463 eV/strain
       c           12.504250 Angstrom     dE/de3(zz)    -0.001192 eV/strain
       alpha       90.000000 Degrees      dE/de4(yz)    -0.000001 eV/strain
       beta       124.813690 Degrees      dE/de5(xz)     0.000103 eV/strain
       gamma       90.000000 Degrees      dE/de6(xy)     0.000000 eV/strain
--------------------------------------------------------------------------------

  Primitive cell volume =          4959.201451 Angs**3

  Density of cell =      1.609668 g/cm**3

  Non-primitive cell volume =          4959.201451 Angs**3


  Final internal derivatives :

--------------------------------------------------------------------------------
   No.  Atomic          a             b             c           Radius
        Label          (eV)          (eV)          (eV)        (eV/Angs)
--------------------------------------------------------------------------------
      1 O     c      -0.000723      0.001237      0.000263      0.000000
      2 O     c      -0.000036      0.000306      0.000738      0.000000
      3 O     c       0.000725      0.001249     -0.000229      0.000000
      4 O     c       0.000031      0.000486     -0.000736      0.000000
      5 O     c      -0.000960     -0.000698      0.001028      0.000000
      6 O     c      -0.000479      0.001101      0.000334      0.000000
      7 O     c       0.000000      0.001692     -0.000000      0.000000
      8 O     c      -0.000837     -0.000695     -0.000283      0.000000
      9 O     c       0.000980     -0.000756      0.000243      0.000000
     10 O     c       0.001255     -0.000599     -0.000350      0.000000
     11 O     c       0.001700     -0.000774     -0.000634      0.000000
     12 O     c       0.001313     -0.000941     -0.001069      0.000000
     13 O     c      -0.000083      0.000099     -0.000060      0.000000
     14 O     c       0.001881      0.000000     -0.000142      0.000000
     15 O     c      -0.001906      0.000000      0.001140      0.000000
     16 O     c       0.000111     -0.000075     -0.000448      0.000000
     17 O     c      -0.000714     -0.000906      0.000327      0.000000
     18 O     c       0.000918     -0.001255     -0.000488      0.000000
     19 O     c       0.001912      0.000000     -0.001159      0.000000
     20 O     c      -0.001699     -0.000000      0.000120      0.000000
     21 O     c      -0.000204     -0.000244      0.000480      0.000000
     22 O     c      -0.000534     -0.000691      0.000352      0.000000
     23 O     c       0.000001      0.000774     -0.000001      0.000000
     24 Si    c      -0.001196      0.000494     -0.000274      0.000000
     25 Si    c      -0.001394      0.000416      0.001277      0.000000
     26 Si    c       0.001462      0.000452      0.000261      0.000000
     27 Si    c       0.001523      0.000378     -0.001259      0.000000
     28 Si    c      -0.000769     -0.000193      0.000430      0.000000
     29 Si    c      -0.000026      0.000861      0.000349      0.000000
     30 Si    c       0.000800     -0.000334      0.000216      0.000000
     31 Si    c       0.001440     -0.000332     -0.000395      0.000000
     32 Si    c       0.001222     -0.001308     -0.000717      0.000000
     33 Si    c       0.000145     -0.000736     -0.000194      0.000000
     34 O     c       0.000723      0.001237     -0.000263      0.000000
     35 O     c       0.000036      0.000307     -0.000738      0.000000
     36 O     c      -0.000725      0.001249      0.000229      0.000000
     37 O     c      -0.000032      0.000486      0.000736      0.000000
     38 O     c       0.000959     -0.000698     -0.001028      0.000000
     39 O     c       0.000478      0.001101     -0.000334      0.000000
     40 O     c       0.000837     -0.000695      0.000283      0.000000
     41 O     c      -0.000978     -0.000756     -0.000243      0.000000
     42 O     c      -0.001255     -0.000599      0.000351      0.000000
     43 O     c      -0.001700     -0.000774      0.000634      0.000000
     44 O     c      -0.001313     -0.000941      0.001069      0.000000
     45 O     c       0.000082      0.000099      0.000060      0.000000
     46 O     c      -0.001881      0.000000      0.000142      0.000000
     47 O     c       0.001906      0.000000     -0.001140      0.000000
     48 O     c      -0.000112     -0.000080      0.000450      0.000000
     49 O     c       0.000713     -0.000905     -0.000327      0.000000
     50 O     c      -0.000918     -0.001254      0.000489      0.000000
     51 O     c      -0.001912     -0.000000      0.001159      0.000000
     52 O     c       0.001699      0.000000     -0.000120      0.000000
     53 O     c       0.000207     -0.000248     -0.000482      0.000000
     54 O     c       0.000534     -0.000691     -0.000352      0.000000
     55 Si    c       0.001196      0.000494      0.000274      0.000000
     56 Si    c       0.001393      0.000417     -0.001277      0.000000
     57 Si    c      -0.001462      0.000452     -0.000261      0.000000
     58 Si    c      -0.001523      0.000378      0.001259      0.000000
     59 Si    c       0.000769     -0.000195     -0.000430      0.000000
     60 Si    c       0.000025      0.000861     -0.000348      0.000000
     61 Si    c      -0.000801     -0.000338     -0.000215      0.000000
     62 Si    c      -0.001440     -0.000331      0.000395      0.000000
     63 Si    c      -0.001223     -0.001308      0.000717      0.000000
     64 Si    c      -0.000145     -0.000736      0.000193      0.000000
     65 O     c       0.000723     -0.001237     -0.000263      0.000000
     66 O     c       0.000036     -0.000306     -0.000738      0.000000
     67 O     c      -0.000725     -0.001249      0.000229      0.000000
     68 O     c      -0.000031     -0.000486      0.000736      0.000000
     69 O     c       0.000960      0.000698     -0.001028      0.000000
     70 O     c       0.000479     -0.001101     -0.000334      0.000000
     71 O     c       0.000000     -0.001692     -0.000000      0.000000
     72 O     c       0.000837      0.000695      0.000283      0.000000
     73 O     c      -0.000980      0.000757     -0.000243      0.000000
     74 O     c      -0.001255      0.000599      0.000350      0.000000
     75 O     c      -0.001700      0.000774      0.000634      0.000000
     76 O     c      -0.001313      0.000941      0.001069      0.000000
     77 O     c       0.000083     -0.000098      0.000060      0.000000
     78 O     c      -0.000111      0.000075      0.000448      0.000000
     79 O     c       0.000714      0.000906     -0.000327      0.000000
     80 O     c      -0.000918      0.001255      0.000488      0.000000
     81 O     c       0.000204      0.000244     -0.000480      0.000000
     82 O     c       0.000534      0.000691     -0.000352      0.000000
     83 O     c      -0.000000     -0.000774     -0.000000      0.000000
     84 Si    c       0.001196     -0.000494      0.000274      0.000000
     85 Si    c       0.001393     -0.000416     -0.001277      0.000000
     86 Si    c      -0.001462     -0.000452     -0.000261      0.000000
     87 Si    c      -0.001523     -0.000378      0.001259      0.000000
     88 Si    c       0.000769      0.000193     -0.000430      0.000000
     89 Si    c       0.000026     -0.000861     -0.000349      0.000000
     90 Si    c      -0.000800      0.000334     -0.000216      0.000000
     91 Si    c      -0.001440      0.000332      0.000395      0.000000
     92 Si    c      -0.001222      0.001308      0.000717      0.000000
     93 Si    c      -0.000145      0.000736      0.000194      0.000000
     94 O     c      -0.000723     -0.001237      0.000263      0.000000
     95 O     c      -0.000036     -0.000306      0.000738      0.000000
     96 O     c       0.000725     -0.001249     -0.000229      0.000000
     97 O     c       0.000031     -0.000486     -0.000736      0.000000
     98 O     c      -0.000960      0.000698      0.001028      0.000000
     99 O     c      -0.000479     -0.001101      0.000334      0.000000
    100 O     c      -0.000837      0.000695     -0.000283      0.000000
    101 O     c       0.000980      0.000757      0.000243      0.000000
    102 O     c       0.001255      0.000598     -0.000350      0.000000
    103 O     c       0.001700      0.000774     -0.000634      0.000000
    104 O     c       0.001313      0.000941     -0.001069      0.000000
    105 O     c      -0.000082     -0.000099     -0.000060      0.000000
    106 O     c       0.000111      0.000075     -0.000448      0.000000
    107 O     c      -0.000714      0.000906      0.000327      0.000000
    108 O     c       0.000918      0.001254     -0.000488      0.000000
    109 O     c      -0.000204      0.000244      0.000480      0.000000
    110 O     c      -0.000534      0.000691      0.000352      0.000000
    111 Si    c      -0.001196     -0.000494     -0.000274      0.000000
    112 Si    c      -0.001394     -0.000416      0.001277      0.000000
    113 Si    c       0.001462     -0.000452      0.000261      0.000000
    114 Si    c       0.001523     -0.000378     -0.001259      0.000000
    115 Si    c      -0.000769      0.000193      0.000430      0.000000
    116 Si    c      -0.000025     -0.000861      0.000349      0.000000
    117 Si    c       0.000800      0.000334      0.000216      0.000000
    118 Si    c       0.001441      0.000332     -0.000395      0.000000
    119 Si    c       0.001222      0.001308     -0.000717      0.000000
    120 Si    c       0.000145      0.000736     -0.000193      0.000000
    121 O     c      -0.000724      0.001237      0.000263      0.000000
    122 O     c      -0.000036      0.000306      0.000738      0.000000
    123 O     c       0.000726      0.001249     -0.000229      0.000000
    124 O     c       0.000032      0.000486     -0.000736      0.000000
    125 O     c      -0.000960     -0.000698      0.001028      0.000000
    126 O     c      -0.000479      0.001101      0.000334      0.000000
    127 O     c       0.000000      0.001693     -0.000000      0.000000
[...]
    149 Si    c      -0.000025      0.000861      0.000349      0.000000
    150 Si    c       0.000800     -0.000333      0.000216      0.000000
    151 Si    c       0.001441     -0.000332     -0.000395      0.000000
    152 Si    c       0.001223     -0.001308     -0.000717      0.000000
    153 Si    c       0.000145     -0.000736     -0.000194      0.000000
    154 O     c       0.000724      0.001237     -0.000263      0.000000
    155 O     c       0.000036      0.000306     -0.000738      0.000000
    156 O     c      -0.000726      0.001249      0.000229      0.000000
    157 O     c      -0.000031      0.000486      0.000736      0.000000
    158 O     c       0.000960     -0.000698     -0.001028      0.000000
    159 O     c       0.000479      0.001101     -0.000334      0.000000
    160 O     c       0.000837     -0.000695      0.000283      0.000000
    161 O     c      -0.000980     -0.000757     -0.000243      0.000000
    162 O     c      -0.001255     -0.000598      0.000350      0.000000
    163 O     c      -0.001700     -0.000774      0.000634      0.000000
    164 O     c      -0.001313     -0.000941      0.001069      0.000000
    165 O     c       0.000082      0.000099      0.000061      0.000000
    166 O     c      -0.001881     -0.000000      0.000142      0.000000
    167 O     c       0.001906      0.000000     -0.001140      0.000000
    168 O     c      -0.000111     -0.000075      0.000448      0.000000
    169 O     c       0.000714     -0.000906     -0.000327      0.000000
    170 O     c      -0.000918     -0.001254      0.000488      0.000000
    171 O     c      -0.001912     -0.000000      0.001159      0.000000
    172 O     c       0.001699     -0.000000     -0.000120      0.000000
    173 O     c       0.000204     -0.000244     -0.000480      0.000000
    174 O     c       0.000534     -0.000691     -0.000352      0.000000
    175 Si    c       0.001197      0.000494      0.000274      0.000000
    176 Si    c       0.001394      0.000416     -0.001277      0.000000
    177 Si    c      -0.001463      0.000451     -0.000261      0.000000
    178 Si    c      -0.001524      0.000378      0.001259      0.000000
    179 Si    c       0.000769     -0.000192     -0.000430      0.000000
    180 Si    c       0.000025      0.000861     -0.000349      0.000000
    181 Si    c      -0.000800     -0.000334     -0.000216      0.000000
    182 Si    c      -0.001441     -0.000332      0.000395      0.000000
    183 Si    c      -0.001222     -0.001308      0.000717      0.000000
    184 Si    c      -0.000144     -0.000736      0.000193      0.000000
    185 O     c       0.000724     -0.001237     -0.000263      0.000000
    186 O     c       0.000036     -0.000306     -0.000738      0.000000
    187 O     c      -0.000726     -0.001249      0.000229      0.000000
    188 O     c      -0.000032     -0.000486      0.000736      0.000000
    189 O     c       0.000960      0.000698     -0.001028      0.000000
    190 O     c       0.000480     -0.001101     -0.000334      0.000000
    191 O     c      -0.000000     -0.001693      0.000000      0.000000
    192 O     c       0.000837      0.000695      0.000283      0.000000
    193 O     c      -0.000980      0.000757     -0.000243      0.000000
    194 O     c      -0.001255      0.000599      0.000350      0.000000
    195 O     c      -0.001700      0.000774      0.000634      0.000000
    196 O     c      -0.001313      0.000941      0.001069      0.000000
    197 O     c       0.000083     -0.000099      0.000060      0.000000
    198 O     c      -0.000111      0.000075      0.000448      0.000000
    199 O     c       0.000714      0.000906     -0.000327      0.000000
    200 O     c      -0.000918      0.001255      0.000488      0.000000
    201 O     c       0.000204      0.000244     -0.000480      0.000000
    202 O     c       0.000534      0.000691     -0.000352      0.000000
    203 O     c       0.000000     -0.000774      0.000000      0.000000
    204 Si    c       0.001197     -0.000494      0.000274      0.000000
    205 Si    c       0.001394     -0.000416     -0.001277      0.000000
    206 Si    c      -0.001463     -0.000451     -0.000261      0.000000
    207 Si    c      -0.001524     -0.000378      0.001259      0.000000
    208 Si    c       0.000769      0.000192     -0.000430      0.000000
    209 Si    c       0.000026     -0.000862     -0.000349      0.000000
    210 Si    c      -0.000800      0.000333     -0.000216      0.000000
    211 Si    c      -0.001440      0.000332      0.000395      0.000000
    212 Si    c      -0.001223      0.001308      0.000717      0.000000
    213 Si    c      -0.000145      0.000736      0.000194      0.000000
    214 O     c      -0.000724     -0.001238      0.000263      0.000000
    215 O     c      -0.000036     -0.000306      0.000738      0.000000
    216 O     c       0.000725     -0.001249     -0.000229      0.000000
    217 O     c       0.000031     -0.000485     -0.000736      0.000000
    218 O     c      -0.000959      0.000698      0.001028      0.000000
    219 O     c      -0.000478     -0.001101      0.000334      0.000000
    220 O     c      -0.000838      0.000695     -0.000283      0.000000
    221 O     c       0.000980      0.000756      0.000243      0.000000
    222 O     c       0.001255      0.000598     -0.000350      0.000000
    223 O     c       0.001700      0.000774     -0.000634      0.000000
    224 O     c       0.001313      0.000941     -0.001069      0.000000
    225 O     c      -0.000082     -0.000099     -0.000060      0.000000
    226 O     c       0.000111      0.000075     -0.000447      0.000000
    227 O     c      -0.000712      0.000901      0.000327      0.000000
    228 O     c       0.000915      0.001247     -0.000492      0.000000
    229 O     c      -0.000204      0.000243      0.000480      0.000000
    230 O     c      -0.000535      0.000691      0.000352      0.000000
    231 Si    c      -0.001196     -0.000494     -0.000274      0.000000
    232 Si    c      -0.001393     -0.000416      0.001277      0.000000
    233 Si    c       0.001463     -0.000451      0.000261      0.000000
    234 Si    c       0.001524     -0.000378     -0.001260      0.000000
    235 Si    c      -0.000768      0.000191      0.000430      0.000000
    236 Si    c      -0.000025     -0.000861      0.000348      0.000000
    237 Si    c       0.000800      0.000334      0.000216      0.000000
    238 Si    c       0.001441      0.000332     -0.000396      0.000000
    239 Si    c       0.001224      0.001306     -0.000722      0.000000
    240 Si    c       0.000000      0.000000      0.000000      0.000000
    241 O     s       0.001357     -0.001812     -0.000521      0.000000
    242 O     s       0.000023     -0.000562     -0.001307      0.000000
    243 O     s      -0.001451     -0.001793      0.000480      0.000000
    244 O     s      -0.000084     -0.000835      0.001291      0.000000
    245 O     s       0.001486      0.001322     -0.001613      0.000000
    246 O     s       0.000870     -0.001694     -0.000528      0.000000
    247 O     s      -0.000000     -0.002729      0.000000      0.000000
    248 O     s       0.001081      0.001215      0.000516      0.000000
    249 O     s      -0.001569      0.001253     -0.000371      0.000000
    250 O     s      -0.002148      0.000926      0.000560      0.000000
    251 O     s      -0.002769      0.001301      0.001030      0.000000
    252 O     s      -0.002108      0.001563      0.001681      0.000000
    253 O     s       0.000280     -0.000530      0.000108      0.000000
    254 O     s      -0.003022      0.000000      0.000107      0.000000
    255 O     s       0.003087     -0.000000     -0.001975      0.000000
    256 O     s      -0.000098     -0.000130      0.000635      0.000000
    257 O     s       0.001253      0.001631     -0.000561      0.000000
    258 O     s      -0.001493      0.002180      0.000774      0.000000
    259 O     s      -0.003158      0.000000      0.002026      0.000000
    260 O     s       0.002709      0.000000     -0.000079      0.000000
    261 O     s       0.000199      0.000316     -0.000825      0.000000
    262 O     s       0.000941      0.001121     -0.000449      0.000000
    263 O     s      -0.000001     -0.000946      0.000001      0.000000
    264 O     s      -0.001357     -0.001813      0.000521      0.000000
    265 O     s      -0.000023     -0.000563      0.001307      0.000000
    266 O     s       0.001451     -0.001793     -0.000480      0.000000
    267 O     s       0.000084     -0.000835     -0.001291      0.000000
    268 O     s      -0.001485      0.001322      0.001613      0.000000
    269 O     s      -0.000870     -0.001694      0.000528      0.000000
    270 O     s      -0.001081      0.001215     -0.000516      0.000000
    271 O     s       0.001566      0.001253      0.000372      0.000000
    272 O     s       0.002147      0.000927     -0.000561      0.000000
    273 O     s       0.002770      0.001301     -0.001030      0.000000
    274 O     s       0.002108      0.001563     -0.001681      0.000000
    275 O     s      -0.000280     -0.000530     -0.000108      0.000000
    276 O     s       0.003022     -0.000000     -0.000107      0.000000
    277 O     s      -0.003087     -0.000000      0.001975      0.000000
    278 O     s       0.000101     -0.000128     -0.000640      0.000000
    279 O     s      -0.001251      0.001631      0.000561      0.000000
    280 O     s       0.001494      0.002180     -0.000774      0.000000
    281 O     s       0.003158     -0.000000     -0.002026      0.000000
    282 O     s      -0.002709     -0.000000      0.000079      0.000000
    283 O     s      -0.000206      0.000316      0.000825      0.000000
    284 O     s      -0.000941      0.001122      0.000449      0.000000
    285 O     s      -0.001357      0.001812      0.000521      0.000000
    286 O     s      -0.000023      0.000561      0.001307      0.000000
    287 O     s       0.001451      0.001792     -0.000480      0.000000
    288 O     s       0.000084      0.000835     -0.001291      0.000000
    289 O     s      -0.001486     -0.001323      0.001613      0.000000
    290 O     s      -0.000870      0.001693      0.000528      0.000000
    291 O     s       0.000000      0.002729     -0.000000      0.000000
    292 O     s      -0.001081     -0.001215     -0.000516      0.000000
    293 O     s       0.001569     -0.001253      0.000371      0.000000
    294 O     s       0.002148     -0.000926     -0.000560      0.000000
    295 O     s       0.002769     -0.001301     -0.001030      0.000000
    296 O     s       0.002108     -0.001563     -0.001682      0.000000
    297 O     s      -0.000280      0.000530     -0.000108      0.000000
    298 O     s       0.000097      0.000130     -0.000635      0.000000
    299 O     s      -0.001253     -0.001631      0.000561      0.000000
    300 O     s       0.001493     -0.002180     -0.000774      0.000000
    301 O     s      -0.000199     -0.000316      0.000825      0.000000
    302 O     s      -0.000941     -0.001122      0.000449      0.000000
    303 O     s      -0.000000      0.000946      0.000000      0.000000
    304 O     s       0.001357      0.001812     -0.000521      0.000000
    305 O     s       0.000023      0.000562     -0.001307      0.000000
    306 O     s      -0.001451      0.001792      0.000480      0.000000
    307 O     s      -0.000084      0.000835      0.001291      0.000000
    308 O     s       0.001486     -0.001323     -0.001613      0.000000
    309 O     s       0.000870      0.001694     -0.000529      0.000000
    310 O     s       0.001081     -0.001215      0.000516      0.000000
    311 O     s      -0.001568     -0.001253     -0.000371      0.000000
    312 O     s      -0.002148     -0.000926      0.000560      0.000000
    313 O     s      -0.002769     -0.001301      0.001030      0.000000
    314 O     s      -0.002108     -0.001563      0.001681      0.000000
    315 O     s       0.000280      0.000530      0.000108      0.000000
    316 O     s      -0.000097      0.000130      0.000635      0.000000
    317 O     s       0.001253     -0.001631     -0.000561      0.000000
    318 O     s      -0.001493     -0.002180      0.000774      0.000000
    319 O     s       0.000199     -0.000316     -0.000825      0.000000
    320 O     s       0.000941     -0.001122     -0.000449      0.000000
    321 O     s       0.001358     -0.001813     -0.000521      0.000000
    322 O     s       0.000023     -0.000562     -0.001308      0.000000
    323 O     s      -0.001452     -0.001793      0.000480      0.000000
    324 O     s      -0.000084     -0.000835      0.001292      0.000000
    325 O     s       0.001486      0.001323     -0.001613      0.000000
    326 O     s       0.000870     -0.001694     -0.000528      0.000000
    327 O     s      -0.000000     -0.002730      0.000000      0.000000
    328 O     s       0.001081      0.001215      0.000516      0.000000
    329 O     s      -0.001569      0.001254     -0.000371      0.000000
    330 O     s      -0.002148      0.000926      0.000560      0.000000
    331 O     s      -0.002769      0.001301      0.001030      0.000000
    332 O     s      -0.002108      0.001563      0.001681      0.000000
    333 O     s       0.000280     -0.000530      0.000108      0.000000
    334 O     s      -0.003023     -0.000000      0.000107      0.000000
    335 O     s       0.003087     -0.000000     -0.001975      0.000000
    336 O     s      -0.000097     -0.000130      0.000635      0.000000
    337 O     s       0.001253      0.001631     -0.000561      0.000000
    338 O     s      -0.001493      0.002180      0.000774      0.000000
    339 O     s      -0.003158      0.000000      0.002026      0.000000
    340 O     s       0.002709      0.000000     -0.000079      0.000000
    341 O     s       0.000199      0.000316     -0.000825      0.000000
    342 O     s       0.000941      0.001121     -0.000449      0.000000
    343 O     s       0.000000     -0.000946      0.000000      0.000000
    344 O     s      -0.001358     -0.001813      0.000521      0.000000
    345 O     s      -0.000023     -0.000562      0.001308      0.000000
    346 O     s       0.001452     -0.001792     -0.000480      0.000000
    347 O     s       0.000084     -0.000835     -0.001292      0.000000
    348 O     s      -0.001486      0.001323      0.001613      0.000000
    349 O     s      -0.000871     -0.001694      0.000529      0.000000
    350 O     s      -0.001081      0.001215     -0.000516      0.000000
    351 O     s       0.001569      0.001254      0.000371      0.000000
    352 O     s       0.002148      0.000926     -0.000560      0.000000
    353 O     s       0.002769      0.001301     -0.001030      0.000000
    354 O     s       0.002108      0.001563     -0.001682      0.000000
    355 O     s      -0.000280     -0.000530     -0.000108      0.000000
    356 O     s       0.003023     -0.000000     -0.000107      0.000000
    357 O     s      -0.003087      0.000000      0.001975      0.000000
    358 O     s       0.000097     -0.000130     -0.000635      0.000000
    359 O     s      -0.001253      0.001632      0.000561      0.000000
    360 O     s       0.001493      0.002180     -0.000774      0.000000
    361 O     s       0.003158     -0.000000     -0.002026      0.000000
    362 O     s      -0.002709     -0.000000      0.000079      0.000000
    363 O     s      -0.000199      0.000316      0.000825      0.000000
    364 O     s      -0.000941      0.001121      0.000449      0.000000
    365 O     s      -0.001358      0.001813      0.000521      0.000000
    366 O     s      -0.000023      0.000562      0.001308      0.000000
    367 O     s       0.001452      0.001793     -0.000480      0.000000
    368 O     s       0.000084      0.000835     -0.001292      0.000000
    369 O     s      -0.001486     -0.001322      0.001613      0.000000
    370 O     s      -0.000870      0.001694      0.000528      0.000000
    371 O     s       0.000000      0.002730     -0.000000      0.000000
    372 O     s      -0.001082     -0.001215     -0.000516      0.000000
    373 O     s       0.001569     -0.001254      0.000371      0.000000
    374 O     s       0.002149     -0.000926     -0.000560      0.000000
    375 O     s       0.002769     -0.001301     -0.001030      0.000000
    376 O     s       0.002108     -0.001563     -0.001682      0.000000
    377 O     s      -0.000280      0.000530     -0.000108      0.000000
    378 O     s       0.000097      0.000130     -0.000635      0.000000
    379 O     s      -0.001253     -0.001631      0.000561      0.000000
    380 O     s       0.001493     -0.002180     -0.000774      0.000000
    381 O     s      -0.000199     -0.000316      0.000825      0.000000
    382 O     s      -0.000941     -0.001121      0.000449      0.000000
    383 O     s      -0.000000      0.000946     -0.000000      0.000000
    384 O     s       0.001358      0.001813     -0.000521      0.000000
    385 O     s       0.000023      0.000562     -0.001307      0.000000
    386 O     s      -0.001452      0.001792      0.000480      0.000000
    387 O     s      -0.000084      0.000835      0.001292      0.000000
    388 O     s       0.001485     -0.001323     -0.001613      0.000000
    389 O     s       0.000870      0.001694     -0.000528      0.000000
    390 O     s       0.001082     -0.001215      0.000516      0.000000
    391 O     s      -0.001569     -0.001253     -0.000371      0.000000
    392 O     s      -0.002149     -0.000926      0.000560      0.000000
    393 O     s      -0.002769     -0.001301      0.001031      0.000000
    394 O     s      -0.002107     -0.001563      0.001682      0.000000
    395 O     s       0.000280      0.000530      0.000108      0.000000
    396 O     s      -0.000097      0.000130      0.000635      0.000000
    397 O     s       0.001250     -0.001630     -0.000563      0.000000
    398 O     s      -0.001490     -0.002182      0.000774      0.000000
    399 O     s       0.000199     -0.000316     -0.000825      0.000000
    400 O     s       0.000940     -0.001122     -0.000449      0.000000
--------------------------------------------------------------------------------
  Maximum abs         0.003158      0.002730      0.002026      0.000000
--------------------------------------------------------------------------------


  Time to end of optimisation =       5.9424 seconds


  Peak dynamic memory used =       7.89 MB 


  Timing analysis for GULP :

--------------------------------------------------------------------------------
  Task / Subroutine                                          Time (Seconds)
--------------------------------------------------------------------------------
  Calculation of reciprocal space energy and derivatives          0.3293
  Calculation of real space energy and derivatives                3.1808
  Calculation of three-body energy and derivatives                0.4790
  Calculation and manipulation of Hessian matrix                  1.0293
  Calculation of matrix inversion                                 0.3357
  Symmetry generation of equivalent positions                     0.0002
  Global summation overhead                                       0.5718
--------------------------------------------------------------------------------
  Total CPU time                                                  5.9425
--------------------------------------------------------------------------------


  Dump file written as ReferenceDataBase/PTF.grs
  CIF file written as ReferenceDataBase/PTF_opt.cif


  Job Finished at 14:14.51 20th April      2023                               

