********************************************************************************
*                       GENERAL UTILITY LATTICE PROGRAM                        *
*                                 Julian Gale                                  *
*                       Curtin Institute for Computation                       *
*                    School of Molecular and Life Sciences                     *
*                    Curtin University, Western Australia                      *
********************************************************************************
* Version = 6.1.2 * Last modified =   3rd November 2022                        *
********************************************************************************
*  optimise     - perform optimisation run                                     *
*  conp         - constant pressure calculation                                *
*  nosymmetry   - turn off symmetry after initial structure generation         *
********************************************************************************

  Job Started  at 14:29.51 20th April      2023                               

  Number of CPUs =     8


  Total number of configurations input =      1

********************************************************************************
*  Input for Configuration =   1 : ReferenceDataBase/PWN                       *
********************************************************************************

  Formula = Si240O480                                                   

  Number of irreducible atoms/shells =    1200


  Total number atoms/shells =    1200

  Dimensionality = 3               :  Bulk   



  Cartesian lattice vectors (Angstroms) :

       24.585500    0.000000    0.000000
        0.000000   24.585500    0.000000
        0.000000    0.000000   24.585500

  Cell parameters (Angstroms/Degrees):

  a =      24.5855    alpha =  90.0000
  b =      24.5855    beta  =  90.0000
  c =      24.5855    gamma =  90.0000

  Initial cell volume =       14860.627053 Angs**3

  Temperature of configuration =   0.00     K 

  Pressure of configuration =         0.000 GPa 

  Fractional coordinates of asymmetric unit :

--------------------------------------------------------------------------------
   No.  Atomic       x           y          z         Charge      Occupancy
        Label      (Frac)      (Frac)     (Frac)        (e)         (Frac)  
--------------------------------------------------------------------------------
      1 Si    c    0.359440 *  0.149772 *  0.063040 *   4.00000    1.000000    
      2 Si    c    0.234758 *  0.150049 *  0.062873 *   4.00000    1.000000    
      3 Si    c    0.433447 *  0.249642 *  0.063562 *   4.00000    1.000000    
      4 O     c    0.297082 *  0.167803 *  0.071757 *   0.86902    1.000000    
      5 O     c    0.397519 *  0.198814 *  0.082443 *   0.86902    1.000000    
      6 O     c    0.371249 *  0.134306 *  0.000721 *   0.86902    1.000000    
      7 O     c    0.496288 *  0.235050 *  0.074235 *   0.86902    1.000000    
      8 O     c    0.224456 *  0.132240 *  0.000721 *   0.86902    1.000000    
      9 O     c    0.373981 *  0.096822 *  0.097901 *   0.86902    1.000000    
     10 O     c    0.198204 *  0.201558 *  0.079296 *   0.86902    1.000000    
     11 O     c    0.218771 *  0.098767 *  0.099846 *   0.86902    1.000000    
     12 Si    c    0.846157 *  0.362794 *  0.063040 *   4.00000    1.000000    
     13 Si    c    0.845881 *  0.238113 *  0.062873 *   4.00000    1.000000    
     14 Si    c    0.746288 *  0.436801 *  0.063562 *   4.00000    1.000000    
     15 O     c    0.828127 *  0.300437 *  0.071757 *   0.86902    1.000000    
     16 O     c    0.797116 *  0.400873 *  0.082443 *   0.86902    1.000000    
     17 O     c    0.861624 *  0.374604 *  0.000721 *   0.86902    1.000000    
     18 O     c    0.760879 *  0.499642 *  0.074235 *   0.86902    1.000000    
     19 O     c    0.863690 *  0.227811 *  0.000721 *   0.86902    1.000000    
     20 O     c    0.899107 *  0.377335 *  0.097901 *   0.86902    1.000000    
     21 O     c    0.794372 *  0.201558 *  0.079296 *   0.86902    1.000000    
     22 O     c    0.897163 *  0.222126 *  0.099846 *   0.86902    1.000000    
     23 Si    c    0.633135 *  0.849512 *  0.063040 *   4.00000    1.000000    
     24 Si    c    0.757817 *  0.849236 *  0.062873 *   4.00000    1.000000    
     25 Si    c    0.559128 *  0.749642 *  0.063562 *   4.00000    1.000000    
     26 O     c    0.695493 *  0.831481 *  0.071757 *   0.86902    1.000000    
     27 O     c    0.595057 *  0.800470 *  0.082443 *   0.86902    1.000000    
     28 O     c    0.621326 *  0.864979 *  0.000721 *   0.86902    1.000000    
     29 O     c    0.496288 *  0.764234 *  0.074235 *   0.86902    1.000000    
     30 O     c    0.768119 *  0.867044 *  0.000721 *   0.86902    1.000000    
     31 O     c    0.618594 *  0.902462 *  0.097901 *   0.86902    1.000000    
     32 O     c    0.794372 *  0.797726 *  0.079296 *   0.86902    1.000000    
     33 O     c    0.773804 *  0.900517 *  0.099846 *   0.86902    1.000000    
     34 Si    c    0.146418 *  0.636490 *  0.063040 *   4.00000    1.000000    
     35 Si    c    0.146694 *  0.761172 *  0.062873 *   4.00000    1.000000    
     36 Si    c    0.246288 *  0.562483 *  0.063562 *   4.00000    1.000000    
     37 O     c    0.164448 *  0.698847 *  0.071757 *   0.86902    1.000000    
     38 O     c    0.195460 *  0.598411 *  0.082443 *   0.86902    1.000000    
     39 O     c    0.130951 *  0.624680 *  0.000721 *   0.86902    1.000000    
     40 O     c    0.231696 *  0.499642 *  0.074235 *   0.86902    1.000000    
     41 O     c    0.128886 *  0.771473 *  0.000721 *   0.86902    1.000000    
     42 O     c    0.093468 *  0.621949 *  0.097901 *   0.86902    1.000000    
     43 O     c    0.198204 *  0.797726 *  0.079296 *   0.86902    1.000000    
     44 O     c    0.095412 *  0.777159 *  0.099846 *   0.86902    1.000000    
     45 Si    c    0.359440 *  0.849512 *  0.938403 *   4.00000    1.000000    
     46 Si    c    0.234758 *  0.849236 *  0.938569 *   4.00000    1.000000    
     47 Si    c    0.433447 *  0.749642 *  0.937880 *   4.00000    1.000000    
     48 O     c    0.297082 *  0.831481 *  0.929686 *   0.86902    1.000000    
     49 O     c    0.397519 *  0.800470 *  0.918999 *   0.86902    1.000000    
     50 O     c    0.371249 *  0.864979 *  0.000721 *   0.86902    1.000000    
     51 O     c    0.496288 *  0.764234 *  0.927207 *   0.86902    1.000000    
     52 O     c    0.224456 *  0.867044 *  0.000721 *   0.86902    1.000000    
     53 O     c    0.373981 *  0.902462 *  0.903541 *   0.86902    1.000000    
     54 O     c    0.198204 *  0.797726 *  0.922146 *   0.86902    1.000000    
     55 O     c    0.218771 *  0.900517 *  0.901596 *   0.86902    1.000000    
     56 Si    c    0.146418 *  0.362794 *  0.938403 *   4.00000    1.000000    
     57 Si    c    0.146694 *  0.238113 *  0.938569 *   4.00000    1.000000    
     58 Si    c    0.246288 *  0.436801 *  0.937880 *   4.00000    1.000000    
     59 O     c    0.164448 *  0.300437 *  0.929686 *   0.86902    1.000000    
     60 O     c    0.195460 *  0.400873 *  0.918999 *   0.86902    1.000000    
     61 O     c    0.130951 *  0.374604 *  0.000721 *   0.86902    1.000000    
     62 O     c    0.231696 *  0.499642 *  0.927207 *   0.86902    1.000000    
     63 O     c    0.128886 *  0.227811 *  0.000721 *   0.86902    1.000000    
     64 O     c    0.093468 *  0.377335 *  0.903541 *   0.86902    1.000000    
     65 O     c    0.198204 *  0.201558 *  0.922146 *   0.86902    1.000000    
     66 O     c    0.095412 *  0.222126 *  0.901596 *   0.86902    1.000000    
     67 Si    c    0.633135 *  0.149772 *  0.938403 *   4.00000    1.000000    
     68 Si    c    0.757817 *  0.150049 *  0.938569 *   4.00000    1.000000    
     69 Si    c    0.559128 *  0.249642 *  0.937880 *   4.00000    1.000000    
     70 O     c    0.695493 *  0.167803 *  0.929686 *   0.86902    1.000000    
     71 O     c    0.595057 *  0.198814 *  0.918999 *   0.86902    1.000000    
     72 O     c    0.621326 *  0.134306 *  0.000721 *   0.86902    1.000000    
     73 O     c    0.496288 *  0.235051 *  0.927207 *   0.86902    1.000000    
     74 O     c    0.768119 *  0.132240 *  0.000721 *   0.86902    1.000000    
     75 O     c    0.618594 *  0.096822 *  0.903541 *   0.86902    1.000000    
     76 O     c    0.794372 *  0.201558 *  0.922146 *   0.86902    1.000000    
     77 O     c    0.773804 *  0.098767 *  0.901596 *   0.86902    1.000000    
     78 Si    c    0.846157 *  0.636490 *  0.938403 *   4.00000    1.000000    
     79 Si    c    0.845881 *  0.761172 *  0.938569 *   4.00000    1.000000    
     80 Si    c    0.746288 *  0.562483 *  0.937880 *   4.00000    1.000000    
     81 O     c    0.828127 *  0.698847 *  0.929686 *   0.86902    1.000000    
     82 O     c    0.797116 *  0.598411 *  0.918999 *   0.86902    1.000000    
     83 O     c    0.861624 *  0.624680 *  0.000721 *   0.86902    1.000000    
     84 O     c    0.760879 *  0.499642 *  0.927207 *   0.86902    1.000000    
     85 O     c    0.863690 *  0.771473 *  0.000721 *   0.86902    1.000000    
     86 O     c    0.899107 *  0.621949 *  0.903541 *   0.86902    1.000000    
     87 O     c    0.794372 *  0.797726 *  0.922146 *   0.86902    1.000000    
     88 O     c    0.897163 *  0.777159 *  0.901596 *   0.86902    1.000000    
     89 Si    c    0.058606 *  0.362794 *  0.150851 *   4.00000    1.000000    
     90 Si    c    0.058439 *  0.238112 *  0.151128 *   4.00000    1.000000    
     91 Si    c    0.059128 *  0.436801 *  0.250721 *   4.00000    1.000000    
     92 O     c    0.067323 *  0.300437 *  0.168882 *   0.86902    1.000000    
     93 O     c    0.078010 *  0.400873 *  0.199893 *   0.86902    1.000000    
     94 O     c    0.996288 *  0.374604 *  0.135385 *   0.86902    1.000000    
     95 O     c    0.069802 *  0.499642 *  0.236129 *   0.86902    1.000000    
     96 O     c    0.996288 *  0.227811 *  0.133319 *   0.86902    1.000000    
     97 O     c    0.093468 *  0.377335 *  0.097901 *   0.86902    1.000000    
     98 O     c    0.074862 *  0.201558 *  0.202637 *   0.86902    1.000000    
     99 O     c    0.095412 *  0.222126 *  0.099846 *   0.86902    1.000000    
    100 Si    c    0.633135 *  0.061961 *  0.150851 *   4.00000    1.000000    
    101 Si    c    0.757817 *  0.061794 *  0.151128 *   4.00000    1.000000    
    102 Si    c    0.559128 *  0.062483 *  0.250721 *   4.00000    1.000000    
    103 O     c    0.695493 *  0.070678 *  0.168882 *   0.86902    1.000000    
    104 O     c    0.595057 *  0.081364 *  0.199893 *   0.86902    1.000000    
    105 O     c    0.621326 *  0.999642 *  0.135385 *   0.86902    1.000000    
    106 O     c    0.496288 *  0.073156 *  0.236129 *   0.86902    1.000000    
    107 O     c    0.768119 *  0.999642 *  0.133319 *   0.86902    1.000000    
    108 O     c    0.618594 *  0.096822 *  0.097901 *   0.86902    1.000000    
    109 O     c    0.794372 *  0.078217 *  0.202637 *   0.86902    1.000000    
    110 O     c    0.773804 *  0.098767 *  0.099846 *   0.86902    1.000000    
    111 Si    c    0.933969 *  0.636490 *  0.150851 *   4.00000    1.000000    
    112 Si    c    0.934136 *  0.761172 *  0.151128 *   4.00000    1.000000    
    113 Si    c    0.933447 *  0.562483 *  0.250721 *   4.00000    1.000000    
    114 O     c    0.925252 *  0.698847 *  0.168882 *   0.86902    1.000000    
    115 O     c    0.914565 *  0.598411 *  0.199893 *   0.86902    1.000000    
    116 O     c    0.996288 *  0.624680 *  0.135385 *   0.86902    1.000000    
    117 O     c    0.922773 *  0.499642 *  0.236129 *   0.86902    1.000000    
    118 O     c    0.996288 *  0.771473 *  0.133319 *   0.86902    1.000000    
    119 O     c    0.899107 *  0.621949 *  0.097901 *   0.86902    1.000000    
    120 O     c    0.917713 *  0.797726 *  0.202637 *   0.86902    1.000000    
    121 O     c    0.897163 *  0.777159 *  0.099846 *   0.86902    1.000000    
    122 Si    c    0.359440 *  0.937324 *  0.150851 *   4.00000    1.000000    
    123 Si    c    0.234758 *  0.937490 *  0.151128 *   4.00000    1.000000    
    124 Si    c    0.433447 *  0.936801 *  0.250721 *   4.00000    1.000000    
    125 O     c    0.297082 *  0.928607 *  0.168882 *   0.86902    1.000000    
    126 O     c    0.397519 *  0.917920 *  0.199893 *   0.86902    1.000000    
    127 O     c    0.371249 *  0.999642 *  0.135385 *   0.86902    1.000000    
    128 O     c    0.496288 *  0.926128 *  0.236129 *   0.86902    1.000000    
    129 O     c    0.224456 *  0.999642 *  0.133319 *   0.86902    1.000000    
    130 O     c    0.373981 *  0.902462 *  0.097901 *   0.86902    1.000000    
    131 O     c    0.198204 *  0.921067 *  0.202637 *   0.86902    1.000000    
    132 O     c    0.218771 *  0.900517 *  0.099846 *   0.86902    1.000000    
    133 Si    c    0.058606 *  0.636490 *  0.850591 *   4.00000    1.000000    
    134 Si    c    0.058439 *  0.761172 *  0.850315 *   4.00000    1.000000    
    135 Si    c    0.059128 *  0.562483 *  0.750721 *   4.00000    1.000000    
    136 O     c    0.067323 *  0.698847 *  0.832560 *   0.86902    1.000000    
    137 O     c    0.078010 *  0.598411 *  0.801549 *   0.86902    1.000000    
    138 O     c    0.996288 *  0.624680 *  0.866058 *   0.86902    1.000000    
    139 O     c    0.069802 *  0.499642 *  0.765313 *   0.86902    1.000000    
    140 O     c    0.996288 *  0.771473 *  0.868123 *   0.86902    1.000000    
    141 O     c    0.093468 *  0.621949 *  0.903541 *   0.86902    1.000000    
    142 O     c    0.074862 *  0.797726 *  0.798805 *   0.86902    1.000000    
    143 O     c    0.095412 *  0.777159 *  0.901596 *   0.86902    1.000000    
    144 Si    c    0.359440 *  0.061961 *  0.850591 *   4.00000    1.000000    
    145 Si    c    0.234758 *  0.061794 *  0.850315 *   4.00000    1.000000    
    146 Si    c    0.433447 *  0.062483 *  0.750721 *   4.00000    1.000000    
    147 O     c    0.297082 *  0.070678 *  0.832560 *   0.86902    1.000000    
    148 O     c    0.397519 *  0.081364 *  0.801549 *   0.86902    1.000000    
    149 O     c    0.371249 *  0.999642 *  0.866058 *   0.86902    1.000000    
    150 O     c    0.496288 *  0.073156 *  0.765313 *   0.86902    1.000000    
    151 O     c    0.224456 *  0.999642 *  0.868123 *   0.86902    1.000000    
    152 O     c    0.373981 *  0.096822 *  0.903541 *   0.86902    1.000000    
    153 O     c    0.198204 *  0.078217 *  0.798805 *   0.86902    1.000000    
    154 O     c    0.218771 *  0.098767 *  0.901596 *   0.86902    1.000000    
    155 Si    c    0.933969 *  0.362794 *  0.850591 *   4.00000    1.000000    
    156 Si    c    0.934136 *  0.238112 *  0.850315 *   4.00000    1.000000    
    157 Si    c    0.933447 *  0.436801 *  0.750721 *   4.00000    1.000000    
    158 O     c    0.925252 *  0.300437 *  0.832560 *   0.86902    1.000000    
    159 O     c    0.914565 *  0.400873 *  0.801549 *   0.86902    1.000000    
    160 O     c    0.996288 *  0.374604 *  0.866058 *   0.86902    1.000000    
    161 O     c    0.922773 *  0.499642 *  0.765313 *   0.86902    1.000000    
    162 O     c    0.996288 *  0.227811 *  0.868123 *   0.86902    1.000000    
    163 O     c    0.899107 *  0.377335 *  0.903541 *   0.86902    1.000000    
    164 O     c    0.917713 *  0.201558 *  0.798805 *   0.86902    1.000000    
    165 O     c    0.897163 *  0.222126 *  0.901596 *   0.86902    1.000000    
    166 Si    c    0.633135 *  0.937324 *  0.850591 *   4.00000    1.000000    
    167 Si    c    0.757817 *  0.937490 *  0.850315 *   4.00000    1.000000    
    168 Si    c    0.559128 *  0.936801 *  0.750721 *   4.00000    1.000000    
    169 O     c    0.695493 *  0.928607 *  0.832560 *   0.86902    1.000000    
    170 O     c    0.595057 *  0.917920 *  0.801549 *   0.86902    1.000000    
    171 O     c    0.621326 *  0.999642 *  0.866058 *   0.86902    1.000000    
    172 O     c    0.496288 *  0.926128 *  0.765313 *   0.86902    1.000000    
    173 O     c    0.768119 *  0.999642 *  0.868123 *   0.86902    1.000000    
    174 O     c    0.618594 *  0.902462 *  0.903541 *   0.86902    1.000000    
    175 O     c    0.794372 *  0.921067 *  0.798805 *   0.86902    1.000000    
    176 O     c    0.773804 *  0.900517 *  0.901596 *   0.86902    1.000000    
    177 Si    c    0.146418 *  0.061961 *  0.363873 *   4.00000    1.000000    
    178 Si    c    0.146694 *  0.061794 *  0.239191 *   4.00000    1.000000    
    179 Si    c    0.246288 *  0.062483 *  0.437880 *   4.00000    1.000000    
    180 O     c    0.164448 *  0.070678 *  0.301516 *   0.86902    1.000000    
    181 O     c    0.195460 *  0.081364 *  0.401952 *   0.86902    1.000000    
    182 O     c    0.130951 *  0.999642 *  0.375683 *   0.86902    1.000000    
    183 O     c    0.231696 *  0.073156 *  0.500721 *   0.86902    1.000000    
    184 O     c    0.128886 *  0.999642 *  0.228890 *   0.86902    1.000000    
    185 O     c    0.093468 *  0.096822 *  0.378414 *   0.86902    1.000000    
    186 O     c    0.198204 *  0.078217 *  0.202637 *   0.86902    1.000000    
    187 O     c    0.095412 *  0.098767 *  0.223205 *   0.86902    1.000000    
    188 Si    c    0.146418 *  0.937324 *  0.637569 *   4.00000    1.000000    
    189 Si    c    0.146694 *  0.937490 *  0.762251 *   4.00000    1.000000    
    190 Si    c    0.246288 *  0.936801 *  0.563562 *   4.00000    1.000000    
    191 O     c    0.164448 *  0.928607 *  0.699926 *   0.86902    1.000000    
    192 O     c    0.195460 *  0.917920 *  0.599490 *   0.86902    1.000000    
    193 O     c    0.130951 *  0.999642 *  0.625759 *   0.86902    1.000000    
    194 O     c    0.231696 *  0.926128 *  0.500721 *   0.86902    1.000000    
    195 O     c    0.128886 *  0.999642 *  0.772552 *   0.86902    1.000000    
    196 O     c    0.093468 *  0.902462 *  0.623028 *   0.86902    1.000000    
    197 O     c    0.198204 *  0.921067 *  0.798805 *   0.86902    1.000000    
    198 O     c    0.095412 *  0.900517 *  0.778238 *   0.86902    1.000000    
    199 Si    c    0.058606 *  0.149772 *  0.637569 *   4.00000    1.000000    
    200 Si    c    0.058439 *  0.150049 *  0.762251 *   4.00000    1.000000    
    201 Si    c    0.059128 *  0.249642 *  0.563562 *   4.00000    1.000000    
    202 O     c    0.067323 *  0.167803 *  0.699926 *   0.86902    1.000000    
    203 O     c    0.078010 *  0.198814 *  0.599490 *   0.86902    1.000000    
    204 O     c    0.996288 *  0.134306 *  0.625759 *   0.86902    1.000000    
    205 O     c    0.069802 *  0.235051 *  0.500721 *   0.86902    1.000000    
    206 O     c    0.996288 *  0.132240 *  0.772552 *   0.86902    1.000000    
    207 O     c    0.093468 *  0.096822 *  0.623028 *   0.86902    1.000000    
    208 O     c    0.074862 *  0.201558 *  0.798805 *   0.86902    1.000000    
    209 O     c    0.095412 *  0.098767 *  0.778238 *   0.86902    1.000000    
    210 Si    c    0.846157 *  0.061961 *  0.637569 *   4.00000    1.000000    
    211 Si    c    0.845881 *  0.061794 *  0.762251 *   4.00000    1.000000    
    212 Si    c    0.746288 *  0.062483 *  0.563562 *   4.00000    1.000000    
    213 O     c    0.828127 *  0.070678 *  0.699926 *   0.86902    1.000000    
    214 O     c    0.797116 *  0.081364 *  0.599490 *   0.86902    1.000000    
    215 O     c    0.861624 *  0.999642 *  0.625759 *   0.86902    1.000000    
    216 O     c    0.760879 *  0.073156 *  0.500721 *   0.86902    1.000000    
    217 O     c    0.863690 *  0.999642 *  0.772552 *   0.86902    1.000000    
    218 O     c    0.899107 *  0.096822 *  0.623028 *   0.86902    1.000000    
    219 O     c    0.794372 *  0.078217 *  0.798805 *   0.86902    1.000000    
    220 O     c    0.897163 *  0.098767 *  0.778238 *   0.86902    1.000000    
    221 Si    c    0.933969 *  0.849512 *  0.637569 *   4.00000    1.000000    
    222 Si    c    0.934136 *  0.849236 *  0.762251 *   4.00000    1.000000    
    223 Si    c    0.933447 *  0.749642 *  0.563562 *   4.00000    1.000000    
    224 O     c    0.925252 *  0.831481 *  0.699926 *   0.86902    1.000000    
    225 O     c    0.914565 *  0.800470 *  0.599490 *   0.86902    1.000000    
    226 O     c    0.996288 *  0.864979 *  0.625759 *   0.86902    1.000000    
    227 O     c    0.922773 *  0.764234 *  0.500721 *   0.86902    1.000000    
    228 O     c    0.996288 *  0.867044 *  0.772552 *   0.86902    1.000000    
    229 O     c    0.899107 *  0.902462 *  0.623028 *   0.86902    1.000000    
    230 O     c    0.917713 *  0.797726 *  0.798805 *   0.86902    1.000000    
    231 O     c    0.897163 *  0.900517 *  0.778238 *   0.86902    1.000000    
    232 Si    c    0.846157 *  0.937324 *  0.363873 *   4.00000    1.000000    
    233 Si    c    0.845881 *  0.937490 *  0.239191 *   4.00000    1.000000    
    234 Si    c    0.746288 *  0.936801 *  0.437880 *   4.00000    1.000000    
    235 O     c    0.828127 *  0.928607 *  0.301516 *   0.86902    1.000000    
    236 O     c    0.797116 *  0.917920 *  0.401952 *   0.86902    1.000000    
    237 O     c    0.861624 *  0.999642 *  0.375683 *   0.86902    1.000000    
    238 O     c    0.760879 *  0.926128 *  0.500721 *   0.86902    1.000000    
    239 O     c    0.863690 *  0.999642 *  0.228890 *   0.86902    1.000000    
    240 O     c    0.899107 *  0.902462 *  0.378414 *   0.86902    1.000000    
    241 O     c    0.794372 *  0.921067 *  0.202637 *   0.86902    1.000000    
    242 O     c    0.897163 *  0.900517 *  0.223205 *   0.86902    1.000000    
    243 Si    c    0.058606 *  0.849512 *  0.363873 *   4.00000    1.000000    
    244 Si    c    0.058439 *  0.849236 *  0.239191 *   4.00000    1.000000    
    245 Si    c    0.059128 *  0.749642 *  0.437880 *   4.00000    1.000000    
    246 O     c    0.067323 *  0.831481 *  0.301516 *   0.86902    1.000000    
    247 O     c    0.078010 *  0.800470 *  0.401952 *   0.86902    1.000000    
    248 O     c    0.996288 *  0.864979 *  0.375683 *   0.86902    1.000000    
    249 O     c    0.069802 *  0.764234 *  0.500721 *   0.86902    1.000000    
    250 O     c    0.996288 *  0.867044 *  0.228890 *   0.86902    1.000000    
    251 O     c    0.093468 *  0.902462 *  0.378414 *   0.86902    1.000000    
    252 O     c    0.074862 *  0.797726 *  0.202637 *   0.86902    1.000000    
    253 O     c    0.095412 *  0.900517 *  0.223205 *   0.86902    1.000000    
    254 Si    c    0.933969 *  0.149772 *  0.363873 *   4.00000    1.000000    
    255 Si    c    0.934136 *  0.150049 *  0.239191 *   4.00000    1.000000    
    256 Si    c    0.933447 *  0.249642 *  0.437880 *   4.00000    1.000000    
    257 O     c    0.925252 *  0.167803 *  0.301516 *   0.86902    1.000000    
    258 O     c    0.914565 *  0.198814 *  0.401952 *   0.86902    1.000000    
    259 O     c    0.996288 *  0.134306 *  0.375683 *   0.86902    1.000000    
    260 O     c    0.922773 *  0.235051 *  0.500721 *   0.86902    1.000000    
    261 O     c    0.996288 *  0.132240 *  0.228890 *   0.86902    1.000000    
    262 O     c    0.899107 *  0.096822 *  0.378414 *   0.86902    1.000000    
    263 O     c    0.917713 *  0.201558 *  0.202637 *   0.86902    1.000000    
    264 O     c    0.897163 *  0.098767 *  0.223205 *   0.86902    1.000000    
    265 Si    c    0.633135 *  0.849512 *  0.938403 *   4.00000    1.000000    
    266 Si    c    0.757817 *  0.849236 *  0.938569 *   4.00000    1.000000    
    267 Si    c    0.559128 *  0.749642 *  0.937880 *   4.00000    1.000000    
    268 O     c    0.695493 *  0.831481 *  0.929686 *   0.86902    1.000000    
    269 O     c    0.595057 *  0.800470 *  0.918999 *   0.86902    1.000000    
    270 Si    c    0.146418 *  0.636490 *  0.938403 *   4.00000    1.000000    
    271 Si    c    0.146694 *  0.761172 *  0.938569 *   4.00000    1.000000    
    272 Si    c    0.246288 *  0.562483 *  0.937880 *   4.00000    1.000000    
    273 O     c    0.164448 *  0.698847 *  0.929686 *   0.86902    1.000000    
    274 O     c    0.195460 *  0.598411 *  0.918999 *   0.86902    1.000000    
    275 Si    c    0.359440 *  0.149772 *  0.938403 *   4.00000    1.000000    
    276 Si    c    0.234758 *  0.150049 *  0.938569 *   4.00000    1.000000    
    277 Si    c    0.433447 *  0.249642 *  0.937880 *   4.00000    1.000000    
    278 O     c    0.297082 *  0.167803 *  0.929686 *   0.86902    1.000000    
    279 O     c    0.397519 *  0.198814 *  0.918999 *   0.86902    1.000000    
    280 Si    c    0.846157 *  0.362794 *  0.938403 *   4.00000    1.000000    
    281 Si    c    0.845881 *  0.238112 *  0.938569 *   4.00000    1.000000    
    282 Si    c    0.746288 *  0.436801 *  0.937880 *   4.00000    1.000000    
    283 O     c    0.828127 *  0.300437 *  0.929686 *   0.86902    1.000000    
    284 O     c    0.797116 *  0.400873 *  0.918999 *   0.86902    1.000000    
    285 Si    c    0.633135 *  0.149772 *  0.063040 *   4.00000    1.000000    
    286 Si    c    0.757817 *  0.150049 *  0.062873 *   4.00000    1.000000    
    287 Si    c    0.559128 *  0.249642 *  0.063562 *   4.00000    1.000000    
    288 O     c    0.695493 *  0.167803 *  0.071757 *   0.86902    1.000000    
    289 O     c    0.595057 *  0.198814 *  0.082443 *   0.86902    1.000000    
    290 Si    c    0.846157 *  0.636490 *  0.063040 *   4.00000    1.000000    
    291 Si    c    0.845881 *  0.761172 *  0.062873 *   4.00000    1.000000    
    292 Si    c    0.746288 *  0.562483 *  0.063562 *   4.00000    1.000000    
    293 O     c    0.828127 *  0.698847 *  0.071757 *   0.86902    1.000000    
    294 O     c    0.797116 *  0.598411 *  0.082443 *   0.86902    1.000000    
    295 Si    c    0.359440 *  0.849512 *  0.063040 *   4.00000    1.000000    
    296 Si    c    0.234758 *  0.849236 *  0.062873 *   4.00000    1.000000    
    297 Si    c    0.433447 *  0.749642 *  0.063562 *   4.00000    1.000000    
    298 O     c    0.297082 *  0.831481 *  0.071757 *   0.86902    1.000000    
    299 O     c    0.397519 *  0.800470 *  0.082443 *   0.86902    1.000000    
    300 Si    c    0.146418 *  0.362794 *  0.063040 *   4.00000    1.000000    
    301 Si    c    0.146694 *  0.238112 *  0.062873 *   4.00000    1.000000    
    302 Si    c    0.246288 *  0.436801 *  0.063562 *   4.00000    1.000000    
    303 O     c    0.164448 *  0.300437 *  0.071757 *   0.86902    1.000000    
    304 O     c    0.195460 *  0.400873 *  0.082443 *   0.86902    1.000000    
    305 Si    c    0.933969 *  0.636490 *  0.850591 *   4.00000    1.000000    
    306 Si    c    0.934136 *  0.761172 *  0.850315 *   4.00000    1.000000    
    307 Si    c    0.933447 *  0.562483 *  0.750721 *   4.00000    1.000000    
    308 O     c    0.925252 *  0.698847 *  0.832560 *   0.86902    1.000000    
    309 O     c    0.914565 *  0.598411 *  0.801549 *   0.86902    1.000000    
    310 Si    c    0.359440 *  0.937324 *  0.850591 *   4.00000    1.000000    
    311 Si    c    0.234758 *  0.937490 *  0.850315 *   4.00000    1.000000    
    312 Si    c    0.433447 *  0.936801 *  0.750721 *   4.00000    1.000000    
    313 O     c    0.297082 *  0.928607 *  0.832560 *   0.86902    1.000000    
    314 O     c    0.397519 *  0.917920 *  0.801549 *   0.86902    1.000000    
    315 Si    c    0.058606 *  0.362794 *  0.850591 *   4.00000    1.000000    
    316 Si    c    0.058439 *  0.238113 *  0.850315 *   4.00000    1.000000    
    317 Si    c    0.059128 *  0.436801 *  0.750721 *   4.00000    1.000000    
    318 O     c    0.067323 *  0.300437 *  0.832560 *   0.86902    1.000000    
    319 O     c    0.078010 *  0.400873 *  0.801549 *   0.86902    1.000000    
    320 Si    c    0.633135 *  0.061961 *  0.850591 *   4.00000    1.000000    
    321 Si    c    0.757817 *  0.061794 *  0.850315 *   4.00000    1.000000    
    322 Si    c    0.559128 *  0.062483 *  0.750721 *   4.00000    1.000000    
    323 O     c    0.695493 *  0.070678 *  0.832560 *   0.86902    1.000000    
    324 O     c    0.595057 *  0.081364 *  0.801549 *   0.86902    1.000000    
    325 Si    c    0.933969 *  0.362794 *  0.150851 *   4.00000    1.000000    
    326 Si    c    0.934136 *  0.238113 *  0.151128 *   4.00000    1.000000    
    327 Si    c    0.933447 *  0.436801 *  0.250721 *   4.00000    1.000000    
    328 O     c    0.925252 *  0.300437 *  0.168882 *   0.86902    1.000000    
    329 O     c    0.914565 *  0.400873 *  0.199893 *   0.86902    1.000000    
    330 Si    c    0.633135 *  0.937324 *  0.150851 *   4.00000    1.000000    
    331 Si    c    0.757817 *  0.937490 *  0.151128 *   4.00000    1.000000    
    332 Si    c    0.559128 *  0.936801 *  0.250721 *   4.00000    1.000000    
    333 O     c    0.695493 *  0.928607 *  0.168882 *   0.86902    1.000000    
    334 O     c    0.595057 *  0.917920 *  0.199893 *   0.86902    1.000000    
    335 Si    c    0.058606 *  0.636490 *  0.150851 *   4.00000    1.000000    
    336 Si    c    0.058439 *  0.761172 *  0.151128 *   4.00000    1.000000    
    337 Si    c    0.059128 *  0.562483 *  0.250721 *   4.00000    1.000000    
    338 O     c    0.067323 *  0.698847 *  0.168882 *   0.86902    1.000000    
    339 O     c    0.078010 *  0.598411 *  0.199893 *   0.86902    1.000000    
    340 Si    c    0.359440 *  0.061961 *  0.150851 *   4.00000    1.000000    
    341 Si    c    0.234758 *  0.061794 *  0.151128 *   4.00000    1.000000    
    342 Si    c    0.433447 *  0.062483 *  0.250721 *   4.00000    1.000000    
    343 O     c    0.297082 *  0.070678 *  0.168882 *   0.86902    1.000000    
    344 O     c    0.397519 *  0.081364 *  0.199893 *   0.86902    1.000000    
    345 Si    c    0.846157 *  0.937324 *  0.637569 *   4.00000    1.000000    
    346 Si    c    0.845881 *  0.937490 *  0.762251 *   4.00000    1.000000    
    347 Si    c    0.746288 *  0.936801 *  0.563562 *   4.00000    1.000000    
    348 O     c    0.828127 *  0.928607 *  0.699926 *   0.86902    1.000000    
    349 O     c    0.797116 *  0.917920 *  0.599490 *   0.86902    1.000000    
    350 Si    c    0.846157 *  0.061961 *  0.363873 *   4.00000    1.000000    
    351 Si    c    0.845881 *  0.061794 *  0.239191 *   4.00000    1.000000    
    352 Si    c    0.746288 *  0.062483 *  0.437880 *   4.00000    1.000000    
    353 O     c    0.828127 *  0.070678 *  0.301516 *   0.86902    1.000000    
    354 O     c    0.797116 *  0.081364 *  0.401952 *   0.86902    1.000000    
    355 Si    c    0.933969 *  0.849512 *  0.363873 *   4.00000    1.000000    
    356 Si    c    0.934136 *  0.849236 *  0.239191 *   4.00000    1.000000    
    357 Si    c    0.933447 *  0.749642 *  0.437880 *   4.00000    1.000000    
    358 O     c    0.925252 *  0.831481 *  0.301516 *   0.86902    1.000000    
    359 O     c    0.914565 *  0.800470 *  0.401952 *   0.86902    1.000000    
    360 Si    c    0.146418 *  0.937324 *  0.363873 *   4.00000    1.000000    
    361 Si    c    0.146694 *  0.937490 *  0.239191 *   4.00000    1.000000    
    362 Si    c    0.246288 *  0.936801 *  0.437880 *   4.00000    1.000000    
    363 O     c    0.164448 *  0.928607 *  0.301516 *   0.86902    1.000000    
    364 O     c    0.195460 *  0.917920 *  0.401952 *   0.86902    1.000000    
    365 Si    c    0.058606 *  0.149772 *  0.363873 *   4.00000    1.000000    
    366 Si    c    0.058439 *  0.150049 *  0.239191 *   4.00000    1.000000    
    367 Si    c    0.059128 *  0.249642 *  0.437880 *   4.00000    1.000000    
    368 O     c    0.067323 *  0.167803 *  0.301516 *   0.86902    1.000000    
    369 O     c    0.078010 *  0.198814 *  0.401952 *   0.86902    1.000000    
    370 Si    c    0.146418 *  0.061961 *  0.637569 *   4.00000    1.000000    
    371 Si    c    0.146694 *  0.061794 *  0.762251 *   4.00000    1.000000    
    372 Si    c    0.246288 *  0.062483 *  0.563562 *   4.00000    1.000000    
    373 O     c    0.164448 *  0.070678 *  0.699926 *   0.86902    1.000000    
    374 O     c    0.195460 *  0.081364 *  0.599490 *   0.86902    1.000000    
    375 Si    c    0.933969 *  0.149772 *  0.637569 *   4.00000    1.000000    
    376 Si    c    0.934136 *  0.150049 *  0.762251 *   4.00000    1.000000    
    377 Si    c    0.933447 *  0.249642 *  0.563562 *   4.00000    1.000000    
    378 O     c    0.925252 *  0.167803 *  0.699926 *   0.86902    1.000000    
    379 O     c    0.914565 *  0.198814 *  0.599490 *   0.86902    1.000000    
    380 Si    c    0.058606 *  0.849512 *  0.637569 *   4.00000    1.000000    
    381 Si    c    0.058439 *  0.849236 *  0.762251 *   4.00000    1.000000    
    382 Si    c    0.059128 *  0.749642 *  0.563562 *   4.00000    1.000000    
    383 O     c    0.067323 *  0.831481 *  0.699926 *   0.86902    1.000000    
    384 O     c    0.078010 *  0.800470 *  0.599490 *   0.86902    1.000000    
    385 Si    c    0.859440 *  0.649772 *  0.563040 *   4.00000    1.000000    
    386 Si    c    0.734758 *  0.650049 *  0.562873 *   4.00000    1.000000    
    387 O     c    0.797082 *  0.667803 *  0.571757 *   0.86902    1.000000    
    388 O     c    0.897519 *  0.698814 *  0.582443 *   0.86902    1.000000    
    389 O     c    0.871249 *  0.634306 *  0.500721 *   0.86902    1.000000    
    390 O     c    0.996288 *  0.735050 *  0.574235 *   0.86902    1.000000    
    391 O     c    0.724456 *  0.632240 *  0.500721 *   0.86902    1.000000    
    392 O     c    0.873981 *  0.596822 *  0.597901 *   0.86902    1.000000    
    393 O     c    0.698204 *  0.701558 *  0.579296 *   0.86902    1.000000    
    394 O     c    0.718771 *  0.598767 *  0.599846 *   0.86902    1.000000    
    395 Si    c    0.346157 *  0.862794 *  0.563040 *   4.00000    1.000000    
    396 Si    c    0.345881 *  0.738112 *  0.562873 *   4.00000    1.000000    
    397 O     c    0.328127 *  0.800437 *  0.571757 *   0.86902    1.000000    
    398 O     c    0.297116 *  0.900873 *  0.582443 *   0.86902    1.000000    
    399 O     c    0.361624 *  0.874604 *  0.500721 *   0.86902    1.000000    
    400 O     c    0.260879 *  0.999642 *  0.574235 *   0.86902    1.000000    
    401 O     c    0.363690 *  0.727811 *  0.500721 *   0.86902    1.000000    
    402 O     c    0.399107 *  0.877335 *  0.597901 *   0.86902    1.000000    
    403 O     c    0.294372 *  0.701558 *  0.579296 *   0.86902    1.000000    
    404 O     c    0.397163 *  0.722126 *  0.599846 *   0.86902    1.000000    
    405 Si    c    0.133135 *  0.349512 *  0.563040 *   4.00000    1.000000    
    406 Si    c    0.257817 *  0.349236 *  0.562873 *   4.00000    1.000000    
    407 O     c    0.195493 *  0.331481 *  0.571757 *   0.86902    1.000000    
    408 O     c    0.095057 *  0.300470 *  0.582443 *   0.86902    1.000000    
    409 O     c    0.121326 *  0.364979 *  0.500721 *   0.86902    1.000000    
    410 O     c    0.996288 *  0.264234 *  0.574235 *   0.86902    1.000000    
    411 O     c    0.268119 *  0.367044 *  0.500721 *   0.86902    1.000000    
    412 O     c    0.118594 *  0.402462 *  0.597901 *   0.86902    1.000000    
    413 O     c    0.294372 *  0.297726 *  0.579296 *   0.86902    1.000000    
    414 O     c    0.273804 *  0.400517 *  0.599846 *   0.86902    1.000000    
    415 Si    c    0.646418 *  0.136490 *  0.563040 *   4.00000    1.000000    
    416 Si    c    0.646694 *  0.261172 *  0.562873 *   4.00000    1.000000    
    417 O     c    0.664448 *  0.198847 *  0.571757 *   0.86902    1.000000    
    418 O     c    0.695460 *  0.098411 *  0.582443 *   0.86902    1.000000    
    419 O     c    0.630951 *  0.124680 *  0.500721 *   0.86902    1.000000    
    420 O     c    0.731696 *  0.999642 *  0.574235 *   0.86902    1.000000    
    421 O     c    0.628886 *  0.271473 *  0.500721 *   0.86902    1.000000    
    422 O     c    0.593468 *  0.121949 *  0.597901 *   0.86902    1.000000    
    423 O     c    0.698204 *  0.297726 *  0.579296 *   0.86902    1.000000    
    424 O     c    0.595412 *  0.277159 *  0.599846 *   0.86902    1.000000    
    425 Si    c    0.859440 *  0.349512 *  0.438403 *   4.00000    1.000000    
    426 Si    c    0.734758 *  0.349236 *  0.438569 *   4.00000    1.000000    
    427 O     c    0.797082 *  0.331481 *  0.429686 *   0.86902    1.000000    
    428 O     c    0.897519 *  0.300470 *  0.418999 *   0.86902    1.000000    
    429 O     c    0.871249 *  0.364979 *  0.500721 *   0.86902    1.000000    
    430 O     c    0.996288 *  0.264234 *  0.427207 *   0.86902    1.000000    
    431 O     c    0.724456 *  0.367044 *  0.500721 *   0.86902    1.000000    
    432 O     c    0.873981 *  0.402462 *  0.403541 *   0.86902    1.000000    
    433 O     c    0.698204 *  0.297726 *  0.422146 *   0.86902    1.000000    
    434 O     c    0.718771 *  0.400517 *  0.401596 *   0.86902    1.000000    
    435 Si    c    0.646418 *  0.862794 *  0.438403 *   4.00000    1.000000    
    436 Si    c    0.646694 *  0.738112 *  0.438569 *   4.00000    1.000000    
    437 O     c    0.664448 *  0.800437 *  0.429686 *   0.86902    1.000000    
    438 O     c    0.695460 *  0.900873 *  0.418999 *   0.86902    1.000000    
    439 O     c    0.630951 *  0.874604 *  0.500721 *   0.86902    1.000000    
    440 O     c    0.731696 *  0.999642 *  0.427207 *   0.86902    1.000000    
    441 O     c    0.628886 *  0.727811 *  0.500721 *   0.86902    1.000000    
    442 O     c    0.593468 *  0.877335 *  0.403541 *   0.86902    1.000000    
    443 O     c    0.698204 *  0.701558 *  0.422146 *   0.86902    1.000000    
    444 O     c    0.595412 *  0.722126 *  0.401596 *   0.86902    1.000000    
    445 Si    c    0.133135 *  0.649772 *  0.438403 *   4.00000    1.000000    
    446 Si    c    0.257817 *  0.650049 *  0.438569 *   4.00000    1.000000    
    447 O     c    0.195493 *  0.667803 *  0.429686 *   0.86902    1.000000    
    448 O     c    0.095057 *  0.698814 *  0.418999 *   0.86902    1.000000    
    449 O     c    0.121326 *  0.634306 *  0.500721 *   0.86902    1.000000    
    450 O     c    0.996288 *  0.735050 *  0.427207 *   0.86902    1.000000    
    451 O     c    0.268119 *  0.632240 *  0.500721 *   0.86902    1.000000    
    452 O     c    0.118594 *  0.596822 *  0.403541 *   0.86902    1.000000    
    453 O     c    0.294372 *  0.701558 *  0.422146 *   0.86902    1.000000    
    454 O     c    0.273804 *  0.598767 *  0.401596 *   0.86902    1.000000    
    455 Si    c    0.346157 *  0.136490 *  0.438403 *   4.00000    1.000000    
    456 Si    c    0.345881 *  0.261172 *  0.438569 *   4.00000    1.000000    
    457 O     c    0.328127 *  0.198847 *  0.429686 *   0.86902    1.000000    
    458 O     c    0.297116 *  0.098411 *  0.418999 *   0.86902    1.000000    
    459 O     c    0.361624 *  0.124680 *  0.500721 *   0.86902    1.000000    
    460 O     c    0.260879 *  0.999642 *  0.427207 *   0.86902    1.000000    
    461 O     c    0.363690 *  0.271473 *  0.500721 *   0.86902    1.000000    
    462 O     c    0.399107 *  0.121949 *  0.403541 *   0.86902    1.000000    
    463 O     c    0.294372 *  0.297726 *  0.422146 *   0.86902    1.000000    
    464 O     c    0.397163 *  0.277159 *  0.401596 *   0.86902    1.000000    
    465 Si    c    0.558606 *  0.862794 *  0.650851 *   4.00000    1.000000    
    466 Si    c    0.558439 *  0.738112 *  0.651128 *   4.00000    1.000000    
    467 O     c    0.567323 *  0.800437 *  0.668882 *   0.86902    1.000000    
    468 O     c    0.578010 *  0.900873 *  0.699893 *   0.86902    1.000000    
    469 O     c    0.496288 *  0.874604 *  0.635385 *   0.86902    1.000000    
    470 O     c    0.569802 *  0.999642 *  0.736129 *   0.86902    1.000000    
    471 O     c    0.496288 *  0.727811 *  0.633319 *   0.86902    1.000000    
    472 O     c    0.593468 *  0.877335 *  0.597901 *   0.86902    1.000000    
    473 O     c    0.574862 *  0.701558 *  0.702637 *   0.86902    1.000000    
    474 O     c    0.595412 *  0.722126 *  0.599846 *   0.86902    1.000000    
    475 Si    c    0.133135 *  0.561961 *  0.650851 *   4.00000    1.000000    
    476 Si    c    0.257817 *  0.561794 *  0.651128 *   4.00000    1.000000    
    477 O     c    0.195493 *  0.570678 *  0.668882 *   0.86902    1.000000    
    478 O     c    0.095057 *  0.581364 *  0.699893 *   0.86902    1.000000    
    479 O     c    0.121326 *  0.499642 *  0.635385 *   0.86902    1.000000    
    480 O     c    0.996288 *  0.573156 *  0.736129 *   0.86902    1.000000    
    481 O     c    0.268119 *  0.499642 *  0.633319 *   0.86902    1.000000    
    482 O     c    0.118594 *  0.596822 *  0.597901 *   0.86902    1.000000    
    483 O     c    0.294372 *  0.578217 *  0.702637 *   0.86902    1.000000    
    484 O     c    0.273804 *  0.598767 *  0.599846 *   0.86902    1.000000    
    485 Si    c    0.433969 *  0.136490 *  0.650851 *   4.00000    1.000000    
    486 Si    c    0.434136 *  0.261172 *  0.651128 *   4.00000    1.000000    
    487 O     c    0.425252 *  0.198847 *  0.668882 *   0.86902    1.000000    
    488 O     c    0.414565 *  0.098411 *  0.699893 *   0.86902    1.000000    
    489 O     c    0.496288 *  0.124680 *  0.635385 *   0.86902    1.000000    
    490 O     c    0.422773 *  0.999642 *  0.736129 *   0.86902    1.000000    
    491 O     c    0.496288 *  0.271473 *  0.633319 *   0.86902    1.000000    
    492 O     c    0.399107 *  0.121949 *  0.597901 *   0.86902    1.000000    
    493 O     c    0.417713 *  0.297726 *  0.702637 *   0.86902    1.000000    
    494 O     c    0.397163 *  0.277159 *  0.599846 *   0.86902    1.000000    
    495 Si    c    0.859440 *  0.437324 *  0.650851 *   4.00000    1.000000    
    496 Si    c    0.734758 *  0.437490 *  0.651128 *   4.00000    1.000000    
    497 O     c    0.797082 *  0.428607 *  0.668882 *   0.86902    1.000000    
    498 O     c    0.897519 *  0.417920 *  0.699893 *   0.86902    1.000000    
    499 O     c    0.871249 *  0.499642 *  0.635385 *   0.86902    1.000000    
    500 O     c    0.996288 *  0.426128 *  0.736129 *   0.86902    1.000000    
    501 O     c    0.724456 *  0.499642 *  0.633319 *   0.86902    1.000000    
    502 O     c    0.873981 *  0.402462 *  0.597901 *   0.86902    1.000000    
    503 O     c    0.698204 *  0.421067 *  0.702637 *   0.86902    1.000000    
    504 O     c    0.718771 *  0.400517 *  0.599846 *   0.86902    1.000000    
    505 Si    c    0.558606 *  0.136490 *  0.350591 *   4.00000    1.000000    
    506 Si    c    0.558439 *  0.261172 *  0.350315 *   4.00000    1.000000    
    507 O     c    0.567323 *  0.198847 *  0.332560 *   0.86902    1.000000    
    508 O     c    0.578010 *  0.098411 *  0.301549 *   0.86902    1.000000    
    509 O     c    0.496288 *  0.124680 *  0.366058 *   0.86902    1.000000    
    510 O     c    0.569802 *  0.999642 *  0.265313 *   0.86902    1.000000    
    511 O     c    0.496288 *  0.271473 *  0.368123 *   0.86902    1.000000    
    512 O     c    0.593468 *  0.121949 *  0.403541 *   0.86902    1.000000    
    513 O     c    0.574862 *  0.297726 *  0.298805 *   0.86902    1.000000    
    514 O     c    0.595412 *  0.277159 *  0.401596 *   0.86902    1.000000    
    515 Si    c    0.859440 *  0.561961 *  0.350591 *   4.00000    1.000000    
    516 Si    c    0.734758 *  0.561794 *  0.350315 *   4.00000    1.000000    
    517 O     c    0.797082 *  0.570678 *  0.332560 *   0.86902    1.000000    
    518 O     c    0.897519 *  0.581364 *  0.301549 *   0.86902    1.000000    
    519 O     c    0.871249 *  0.499642 *  0.366058 *   0.86902    1.000000    
    520 O     c    0.996288 *  0.573156 *  0.265313 *   0.86902    1.000000    
    521 O     c    0.724456 *  0.499642 *  0.368123 *   0.86902    1.000000    
    522 O     c    0.873981 *  0.596822 *  0.403541 *   0.86902    1.000000    
    523 O     c    0.698204 *  0.578217 *  0.298805 *   0.86902    1.000000    
    524 O     c    0.718771 *  0.598767 *  0.401596 *   0.86902    1.000000    
    525 Si    c    0.433969 *  0.862794 *  0.350591 *   4.00000    1.000000    
    526 Si    c    0.434136 *  0.738112 *  0.350315 *   4.00000    1.000000    
    527 O     c    0.425252 *  0.800437 *  0.332560 *   0.86902    1.000000    
    528 O     c    0.414565 *  0.900873 *  0.301549 *   0.86902    1.000000    
    529 O     c    0.496288 *  0.874604 *  0.366058 *   0.86902    1.000000    
    530 O     c    0.422773 *  0.999642 *  0.265313 *   0.86902    1.000000    
    531 O     c    0.496288 *  0.727811 *  0.368123 *   0.86902    1.000000    
    532 O     c    0.399107 *  0.877335 *  0.403541 *   0.86902    1.000000    
    533 O     c    0.417713 *  0.701558 *  0.298805 *   0.86902    1.000000    
    534 O     c    0.397163 *  0.722126 *  0.401596 *   0.86902    1.000000    
    535 Si    c    0.133135 *  0.437324 *  0.350591 *   4.00000    1.000000    
    536 Si    c    0.257817 *  0.437490 *  0.350315 *   4.00000    1.000000    
    537 O     c    0.195493 *  0.428607 *  0.332560 *   0.86902    1.000000    
    538 O     c    0.095057 *  0.417920 *  0.301549 *   0.86902    1.000000    
    539 O     c    0.121326 *  0.499642 *  0.366058 *   0.86902    1.000000    
    540 O     c    0.996288 *  0.426128 *  0.265313 *   0.86902    1.000000    
    541 O     c    0.268119 *  0.499642 *  0.368123 *   0.86902    1.000000    
    542 O     c    0.118594 *  0.402462 *  0.403541 *   0.86902    1.000000    
    543 O     c    0.294372 *  0.421067 *  0.298805 *   0.86902    1.000000    
    544 O     c    0.273804 *  0.400517 *  0.401596 *   0.86902    1.000000    
    545 Si    c    0.646418 *  0.561961 *  0.863873 *   4.00000    1.000000    
    546 Si    c    0.646694 *  0.561794 *  0.739191 *   4.00000    1.000000    
    547 O     c    0.664448 *  0.570678 *  0.801516 *   0.86902    1.000000    
    548 O     c    0.695460 *  0.581364 *  0.901952 *   0.86902    1.000000    
    549 O     c    0.630951 *  0.499642 *  0.875683 *   0.86902    1.000000    
    550 O     c    0.731696 *  0.573156 *  0.000721 *   0.86902    1.000000    
    551 O     c    0.628886 *  0.499642 *  0.728890 *   0.86902    1.000000    
    552 O     c    0.593468 *  0.596822 *  0.878414 *   0.86902    1.000000    
    553 O     c    0.698204 *  0.578217 *  0.702637 *   0.86902    1.000000    
    554 O     c    0.595412 *  0.598767 *  0.723205 *   0.86902    1.000000    
    555 Si    c    0.646418 *  0.437324 *  0.137569 *   4.00000    1.000000    
    556 Si    c    0.646694 *  0.437490 *  0.262251 *   4.00000    1.000000    
    557 O     c    0.664448 *  0.428607 *  0.199926 *   0.86902    1.000000    
    558 O     c    0.695460 *  0.417920 *  0.099490 *   0.86902    1.000000    
    559 O     c    0.630951 *  0.499642 *  0.125759 *   0.86902    1.000000    
    560 O     c    0.731696 *  0.426128 *  0.000721 *   0.86902    1.000000    
    561 O     c    0.628886 *  0.499642 *  0.272552 *   0.86902    1.000000    
    562 O     c    0.593468 *  0.402462 *  0.123028 *   0.86902    1.000000    
    563 O     c    0.698204 *  0.421067 *  0.298805 *   0.86902    1.000000    
    564 O     c    0.595412 *  0.400517 *  0.278238 *   0.86902    1.000000    
    565 Si    c    0.558606 *  0.649772 *  0.137569 *   4.00000    1.000000    
    566 Si    c    0.558439 *  0.650049 *  0.262251 *   4.00000    1.000000    
    567 O     c    0.567323 *  0.667803 *  0.199926 *   0.86902    1.000000    
    568 O     c    0.578010 *  0.698814 *  0.099490 *   0.86902    1.000000    
    569 O     c    0.496288 *  0.634306 *  0.125759 *   0.86902    1.000000    
    570 O     c    0.569802 *  0.735050 *  0.000721 *   0.86902    1.000000    
    571 O     c    0.496288 *  0.632240 *  0.272552 *   0.86902    1.000000    
    572 O     c    0.593468 *  0.596822 *  0.123028 *   0.86902    1.000000    
    573 O     c    0.574862 *  0.701558 *  0.298805 *   0.86902    1.000000    
    574 O     c    0.595412 *  0.598767 *  0.278238 *   0.86902    1.000000    
    575 Si    c    0.346157 *  0.561961 *  0.137569 *   4.00000    1.000000    
    576 Si    c    0.345881 *  0.561794 *  0.262251 *   4.00000    1.000000    
    577 O     c    0.328127 *  0.570678 *  0.199926 *   0.86902    1.000000    
    578 O     c    0.297116 *  0.581364 *  0.099490 *   0.86902    1.000000    
    579 O     c    0.361624 *  0.499642 *  0.125759 *   0.86902    1.000000    
    580 O     c    0.260879 *  0.573156 *  0.000721 *   0.86902    1.000000    
    581 O     c    0.363690 *  0.499642 *  0.272552 *   0.86902    1.000000    
    582 O     c    0.399107 *  0.596822 *  0.123028 *   0.86902    1.000000    
    583 O     c    0.294372 *  0.578217 *  0.298805 *   0.86902    1.000000    
    584 O     c    0.397163 *  0.598767 *  0.278238 *   0.86902    1.000000    
    585 Si    c    0.433969 *  0.349512 *  0.137569 *   4.00000    1.000000    
    586 Si    c    0.434136 *  0.349236 *  0.262251 *   4.00000    1.000000    
    587 O     c    0.425252 *  0.331481 *  0.199926 *   0.86902    1.000000    
    588 O     c    0.414565 *  0.300470 *  0.099490 *   0.86902    1.000000    
    589 O     c    0.496288 *  0.364979 *  0.125759 *   0.86902    1.000000    
    590 O     c    0.422773 *  0.264234 *  0.000721 *   0.86902    1.000000    
    591 O     c    0.496288 *  0.367044 *  0.272552 *   0.86902    1.000000    
    592 O     c    0.399107 *  0.402462 *  0.123028 *   0.86902    1.000000    
    593 O     c    0.417713 *  0.297726 *  0.298805 *   0.86902    1.000000    
    594 O     c    0.397163 *  0.400517 *  0.278238 *   0.86902    1.000000    
    595 Si    c    0.346157 *  0.437324 *  0.863873 *   4.00000    1.000000    
    596 Si    c    0.345881 *  0.437490 *  0.739191 *   4.00000    1.000000    
    597 O     c    0.328127 *  0.428607 *  0.801516 *   0.86902    1.000000    
    598 O     c    0.297116 *  0.417920 *  0.901952 *   0.86902    1.000000    
    599 O     c    0.361624 *  0.499642 *  0.875683 *   0.86902    1.000000    
    600 O     c    0.260879 *  0.426128 *  0.000721 *   0.86902    1.000000    
    601 O     c    0.363690 *  0.499642 *  0.728890 *   0.86902    1.000000    
    602 O     c    0.399107 *  0.402462 *  0.878414 *   0.86902    1.000000    
    603 O     c    0.294372 *  0.421067 *  0.702637 *   0.86902    1.000000    
    604 O     c    0.397163 *  0.400517 *  0.723205 *   0.86902    1.000000    
    605 Si    c    0.558606 *  0.349512 *  0.863873 *   4.00000    1.000000    
    606 Si    c    0.558439 *  0.349236 *  0.739191 *   4.00000    1.000000    
    607 O     c    0.567323 *  0.331481 *  0.801516 *   0.86902    1.000000    
    608 O     c    0.578010 *  0.300470 *  0.901952 *   0.86902    1.000000    
    609 O     c    0.496288 *  0.364979 *  0.875683 *   0.86902    1.000000    
    610 O     c    0.569802 *  0.264234 *  0.000721 *   0.86902    1.000000    
    611 O     c    0.496288 *  0.367044 *  0.728890 *   0.86902    1.000000    
    612 O     c    0.593468 *  0.402462 *  0.878414 *   0.86902    1.000000    
    613 O     c    0.574862 *  0.297726 *  0.702637 *   0.86902    1.000000    
    614 O     c    0.595412 *  0.400517 *  0.723205 *   0.86902    1.000000    
    615 Si    c    0.433969 *  0.649772 *  0.863873 *   4.00000    1.000000    
    616 Si    c    0.434136 *  0.650049 *  0.739191 *   4.00000    1.000000    
    617 O     c    0.425252 *  0.667803 *  0.801516 *   0.86902    1.000000    
    618 O     c    0.414565 *  0.698814 *  0.901952 *   0.86902    1.000000    
    619 O     c    0.496288 *  0.634306 *  0.875683 *   0.86902    1.000000    
    620 O     c    0.422773 *  0.735050 *  0.000721 *   0.86902    1.000000    
    621 O     c    0.496288 *  0.632240 *  0.728890 *   0.86902    1.000000    
    622 O     c    0.399107 *  0.596822 *  0.878414 *   0.86902    1.000000    
    623 O     c    0.417713 *  0.701558 *  0.702637 *   0.86902    1.000000    
    624 O     c    0.397163 *  0.598767 *  0.723205 *   0.86902    1.000000    
    625 Si    c    0.133135 *  0.349512 *  0.438403 *   4.00000    1.000000    
    626 Si    c    0.257817 *  0.349236 *  0.438569 *   4.00000    1.000000    
    627 O     c    0.195493 *  0.331481 *  0.429686 *   0.86902    1.000000    
    628 O     c    0.095057 *  0.300470 *  0.418999 *   0.86902    1.000000    
    629 Si    c    0.646418 *  0.136490 *  0.438403 *   4.00000    1.000000    
    630 Si    c    0.646694 *  0.261172 *  0.438569 *   4.00000    1.000000    
    631 O     c    0.664448 *  0.198847 *  0.429686 *   0.86902    1.000000    
    632 O     c    0.695460 *  0.098411 *  0.418999 *   0.86902    1.000000    
    633 Si    c    0.859440 *  0.649772 *  0.438403 *   4.00000    1.000000    
    634 Si    c    0.734758 *  0.650049 *  0.438569 *   4.00000    1.000000    
    635 O     c    0.797082 *  0.667803 *  0.429686 *   0.86902    1.000000    
    636 O     c    0.897519 *  0.698814 *  0.418999 *   0.86902    1.000000    
    637 Si    c    0.346157 *  0.862794 *  0.438403 *   4.00000    1.000000    
    638 Si    c    0.345881 *  0.738112 *  0.438569 *   4.00000    1.000000    
    639 O     c    0.328127 *  0.800437 *  0.429686 *   0.86902    1.000000    
    640 O     c    0.297116 *  0.900873 *  0.418999 *   0.86902    1.000000    
    641 Si    c    0.133135 *  0.649772 *  0.563040 *   4.00000    1.000000    
    642 Si    c    0.257817 *  0.650049 *  0.562873 *   4.00000    1.000000    
    643 O     c    0.195493 *  0.667803 *  0.571757 *   0.86902    1.000000    
    644 O     c    0.095057 *  0.698814 *  0.582443 *   0.86902    1.000000    
    645 Si    c    0.346157 *  0.136490 *  0.563040 *   4.00000    1.000000    
    646 Si    c    0.345881 *  0.261172 *  0.562873 *   4.00000    1.000000    
    647 O     c    0.328127 *  0.198847 *  0.571757 *   0.86902    1.000000    
    648 O     c    0.297116 *  0.098411 *  0.582443 *   0.86902    1.000000    
    649 Si    c    0.859440 *  0.349512 *  0.563040 *   4.00000    1.000000    
    650 Si    c    0.734758 *  0.349236 *  0.562873 *   4.00000    1.000000    
    651 O     c    0.797082 *  0.331481 *  0.571757 *   0.86902    1.000000    
    652 O     c    0.897519 *  0.300470 *  0.582443 *   0.86902    1.000000    
    653 Si    c    0.646418 *  0.862794 *  0.563040 *   4.00000    1.000000    
    654 Si    c    0.646694 *  0.738112 *  0.562873 *   4.00000    1.000000    
    655 O     c    0.664448 *  0.800437 *  0.571757 *   0.86902    1.000000    
    656 O     c    0.695460 *  0.900873 *  0.582443 *   0.86902    1.000000    
    657 Si    c    0.433969 *  0.136490 *  0.350591 *   4.00000    1.000000    
    658 Si    c    0.434136 *  0.261172 *  0.350315 *   4.00000    1.000000    
    659 O     c    0.425252 *  0.198847 *  0.332560 *   0.86902    1.000000    
    660 O     c    0.414565 *  0.098411 *  0.301549 *   0.86902    1.000000    
    661 Si    c    0.859440 *  0.437324 *  0.350591 *   4.00000    1.000000    
    662 Si    c    0.734758 *  0.437490 *  0.350315 *   4.00000    1.000000    
    663 O     c    0.797082 *  0.428607 *  0.332560 *   0.86902    1.000000    
    664 O     c    0.897519 *  0.417920 *  0.301549 *   0.86902    1.000000    
    665 Si    c    0.558606 *  0.862794 *  0.350591 *   4.00000    1.000000    
    666 Si    c    0.558439 *  0.738112 *  0.350315 *   4.00000    1.000000    
    667 O     c    0.567323 *  0.800437 *  0.332560 *   0.86902    1.000000    
    668 O     c    0.578010 *  0.900873 *  0.301549 *   0.86902    1.000000    
    669 Si    c    0.133135 *  0.561961 *  0.350591 *   4.00000    1.000000    
    670 Si    c    0.257817 *  0.561794 *  0.350315 *   4.00000    1.000000    
    671 O     c    0.195493 *  0.570678 *  0.332560 *   0.86902    1.000000    
    672 O     c    0.095057 *  0.581364 *  0.301549 *   0.86902    1.000000    
    673 Si    c    0.433969 *  0.862794 *  0.650851 *   4.00000    1.000000    
    674 Si    c    0.434136 *  0.738112 *  0.651128 *   4.00000    1.000000    
    675 O     c    0.425252 *  0.800437 *  0.668882 *   0.86902    1.000000    
    676 O     c    0.414565 *  0.900873 *  0.699893 *   0.86902    1.000000    
    677 Si    c    0.133135 *  0.437324 *  0.650851 *   4.00000    1.000000    
    678 Si    c    0.257817 *  0.437490 *  0.651128 *   4.00000    1.000000    
    679 O     c    0.195493 *  0.428607 *  0.668882 *   0.86902    1.000000    
    680 O     c    0.095057 *  0.417920 *  0.699893 *   0.86902    1.000000    
    681 Si    c    0.558606 *  0.136490 *  0.650851 *   4.00000    1.000000    
    682 Si    c    0.558439 *  0.261172 *  0.651128 *   4.00000    1.000000    
    683 O     c    0.567323 *  0.198847 *  0.668882 *   0.86902    1.000000    
    684 O     c    0.578010 *  0.098411 *  0.699893 *   0.86902    1.000000    
    685 Si    c    0.859440 *  0.561961 *  0.650851 *   4.00000    1.000000    
    686 Si    c    0.734758 *  0.561794 *  0.651128 *   4.00000    1.000000    
    687 O     c    0.797082 *  0.570678 *  0.668882 *   0.86902    1.000000    
    688 O     c    0.897519 *  0.581364 *  0.699893 *   0.86902    1.000000    
    689 Si    c    0.346157 *  0.437324 *  0.137569 *   4.00000    1.000000    
    690 Si    c    0.345881 *  0.437490 *  0.262251 *   4.00000    1.000000    
    691 O     c    0.328127 *  0.428607 *  0.199926 *   0.86902    1.000000    
    692 O     c    0.297116 *  0.417920 *  0.099490 *   0.86902    1.000000    
    693 Si    c    0.346157 *  0.561961 *  0.863873 *   4.00000    1.000000    
    694 Si    c    0.345881 *  0.561794 *  0.739191 *   4.00000    1.000000    
    695 O     c    0.328127 *  0.570678 *  0.801516 *   0.86902    1.000000    
    696 O     c    0.297116 *  0.581364 *  0.901952 *   0.86902    1.000000    
    697 Si    c    0.433969 *  0.349512 *  0.863873 *   4.00000    1.000000    
    698 Si    c    0.434136 *  0.349236 *  0.739191 *   4.00000    1.000000    
    699 O     c    0.425252 *  0.331481 *  0.801516 *   0.86902    1.000000    
    700 O     c    0.414565 *  0.300470 *  0.901952 *   0.86902    1.000000    
    701 Si    c    0.646418 *  0.437324 *  0.863873 *   4.00000    1.000000    
    702 Si    c    0.646694 *  0.437490 *  0.739191 *   4.00000    1.000000    
    703 O     c    0.664448 *  0.428607 *  0.801516 *   0.86902    1.000000    
    704 O     c    0.695460 *  0.417920 *  0.901952 *   0.86902    1.000000    
    705 Si    c    0.558606 *  0.649772 *  0.863873 *   4.00000    1.000000    
    706 Si    c    0.558439 *  0.650049 *  0.739191 *   4.00000    1.000000    
    707 O     c    0.567323 *  0.667803 *  0.801516 *   0.86902    1.000000    
    708 O     c    0.578010 *  0.698814 *  0.901952 *   0.86902    1.000000    
    709 Si    c    0.646418 *  0.561961 *  0.137569 *   4.00000    1.000000    
    710 Si    c    0.646694 *  0.561794 *  0.262251 *   4.00000    1.000000    
    711 O     c    0.664448 *  0.570678 *  0.199926 *   0.86902    1.000000    
    712 O     c    0.695460 *  0.581364 *  0.099490 *   0.86902    1.000000    
    713 Si    c    0.433969 *  0.649772 *  0.137569 *   4.00000    1.000000    
    714 Si    c    0.434136 *  0.650049 *  0.262251 *   4.00000    1.000000    
    715 O     c    0.425252 *  0.667803 *  0.199926 *   0.86902    1.000000    
    716 O     c    0.414565 *  0.698814 *  0.099490 *   0.86902    1.000000    
    717 Si    c    0.558606 *  0.349512 *  0.137569 *   4.00000    1.000000    
    718 Si    c    0.558439 *  0.349236 *  0.262251 *   4.00000    1.000000    
    719 O     c    0.567323 *  0.331481 *  0.199926 *   0.86902    1.000000    
    720 O     c    0.578010    0.300470    0.099490     0.86902    1.000000    
    721 O     s    0.297082 *  0.167803 *  0.071757 *  -2.86902    1.000000    
    722 O     s    0.397519 *  0.198814 *  0.082443 *  -2.86902    1.000000    
    723 O     s    0.371249 *  0.134306 *  0.000721 *  -2.86902    1.000000    
    724 O     s    0.496288 *  0.235050 *  0.074235 *  -2.86902    1.000000    
    725 O     s    0.224456 *  0.132240 *  0.000721 *  -2.86902    1.000000    
    726 O     s    0.373981 *  0.096822 *  0.097901 *  -2.86902    1.000000    
    727 O     s    0.198204 *  0.201558 *  0.079296 *  -2.86902    1.000000    
    728 O     s    0.218771 *  0.098767 *  0.099846 *  -2.86902    1.000000    
    729 O     s    0.828127 *  0.300437 *  0.071757 *  -2.86902    1.000000    
    730 O     s    0.797116 *  0.400873 *  0.082443 *  -2.86902    1.000000    
    731 O     s    0.861624 *  0.374604 *  0.000721 *  -2.86902    1.000000    
    732 O     s    0.760879 *  0.499642 *  0.074235 *  -2.86902    1.000000    
    733 O     s    0.863690 *  0.227811 *  0.000721 *  -2.86902    1.000000    
    734 O     s    0.899107 *  0.377335 *  0.097901 *  -2.86902    1.000000    
    735 O     s    0.794372 *  0.201558 *  0.079296 *  -2.86902    1.000000    
    736 O     s    0.897163 *  0.222126 *  0.099846 *  -2.86902    1.000000    
    737 O     s    0.695493 *  0.831481 *  0.071757 *  -2.86902    1.000000    
    738 O     s    0.595057 *  0.800470 *  0.082443 *  -2.86902    1.000000    
    739 O     s    0.621326 *  0.864979 *  0.000721 *  -2.86902    1.000000    
    740 O     s    0.496288 *  0.764234 *  0.074235 *  -2.86902    1.000000    
    741 O     s    0.768119 *  0.867044 *  0.000721 *  -2.86902    1.000000    
    742 O     s    0.618594 *  0.902462 *  0.097901 *  -2.86902    1.000000    
    743 O     s    0.794372 *  0.797726 *  0.079296 *  -2.86902    1.000000    
    744 O     s    0.773804 *  0.900517 *  0.099846 *  -2.86902    1.000000    
    745 O     s    0.164448 *  0.698847 *  0.071757 *  -2.86902    1.000000    
    746 O     s    0.195460 *  0.598411 *  0.082443 *  -2.86902    1.000000    
    747 O     s    0.130951 *  0.624680 *  0.000721 *  -2.86902    1.000000    
    748 O     s    0.231696 *  0.499642 *  0.074235 *  -2.86902    1.000000    
    749 O     s    0.128886 *  0.771473 *  0.000721 *  -2.86902    1.000000    
    750 O     s    0.093468 *  0.621949 *  0.097901 *  -2.86902    1.000000    
    751 O     s    0.198204 *  0.797726 *  0.079296 *  -2.86902    1.000000    
    752 O     s    0.095412 *  0.777159 *  0.099846 *  -2.86902    1.000000    
    753 O     s    0.297082 *  0.831481 *  0.929686 *  -2.86902    1.000000    
    754 O     s    0.397519 *  0.800470 *  0.918999 *  -2.86902    1.000000    
    755 O     s    0.371249 *  0.864979 *  0.000721 *  -2.86902    1.000000    
    756 O     s    0.496288 *  0.764234 *  0.927207 *  -2.86902    1.000000    
    757 O     s    0.224456 *  0.867044 *  0.000721 *  -2.86902    1.000000    
    758 O     s    0.373981 *  0.902462 *  0.903541 *  -2.86902    1.000000    
    759 O     s    0.198204 *  0.797726 *  0.922146 *  -2.86902    1.000000    
    760 O     s    0.218771 *  0.900517 *  0.901596 *  -2.86902    1.000000    
    761 O     s    0.164448 *  0.300437 *  0.929686 *  -2.86902    1.000000    
    762 O     s    0.195460 *  0.400873 *  0.918999 *  -2.86902    1.000000    
    763 O     s    0.130951 *  0.374604 *  0.000721 *  -2.86902    1.000000    
    764 O     s    0.231696 *  0.499642 *  0.927207 *  -2.86902    1.000000    
    765 O     s    0.128886 *  0.227811 *  0.000721 *  -2.86902    1.000000    
    766 O     s    0.093468 *  0.377335 *  0.903541 *  -2.86902    1.000000    
    767 O     s    0.198204 *  0.201558 *  0.922146 *  -2.86902    1.000000    
    768 O     s    0.095412 *  0.222126 *  0.901596 *  -2.86902    1.000000    
    769 O     s    0.695493 *  0.167803 *  0.929686 *  -2.86902    1.000000    
    770 O     s    0.595057 *  0.198814 *  0.918999 *  -2.86902    1.000000    
    771 O     s    0.621326 *  0.134306 *  0.000721 *  -2.86902    1.000000    
    772 O     s    0.496288 *  0.235051 *  0.927207 *  -2.86902    1.000000    
    773 O     s    0.768119 *  0.132240 *  0.000721 *  -2.86902    1.000000    
    774 O     s    0.618594 *  0.096822 *  0.903541 *  -2.86902    1.000000    
    775 O     s    0.794372 *  0.201558 *  0.922146 *  -2.86902    1.000000    
    776 O     s    0.773804 *  0.098767 *  0.901596 *  -2.86902    1.000000    
    777 O     s    0.828127 *  0.698847 *  0.929686 *  -2.86902    1.000000    
    778 O     s    0.797116 *  0.598411 *  0.918999 *  -2.86902    1.000000    
    779 O     s    0.861624 *  0.624680 *  0.000721 *  -2.86902    1.000000    
    780 O     s    0.760879 *  0.499642 *  0.927207 *  -2.86902    1.000000    
    781 O     s    0.863690 *  0.771473 *  0.000721 *  -2.86902    1.000000    
    782 O     s    0.899107 *  0.621949 *  0.903541 *  -2.86902    1.000000    
    783 O     s    0.794372 *  0.797726 *  0.922146 *  -2.86902    1.000000    
    784 O     s    0.897163 *  0.777159 *  0.901596 *  -2.86902    1.000000    
    785 O     s    0.067323 *  0.300437 *  0.168882 *  -2.86902    1.000000    
    786 O     s    0.078010 *  0.400873 *  0.199893 *  -2.86902    1.000000    
    787 O     s    0.996288 *  0.374604 *  0.135385 *  -2.86902    1.000000    
    788 O     s    0.069802 *  0.499642 *  0.236129 *  -2.86902    1.000000    
    789 O     s    0.996288 *  0.227811 *  0.133319 *  -2.86902    1.000000    
    790 O     s    0.093468 *  0.377335 *  0.097901 *  -2.86902    1.000000    
    791 O     s    0.074862 *  0.201558 *  0.202637 *  -2.86902    1.000000    
    792 O     s    0.095412 *  0.222126 *  0.099846 *  -2.86902    1.000000    
    793 O     s    0.695493 *  0.070678 *  0.168882 *  -2.86902    1.000000    
    794 O     s    0.595057 *  0.081364 *  0.199893 *  -2.86902    1.000000    
    795 O     s    0.621326 *  0.999642 *  0.135385 *  -2.86902    1.000000    
    796 O     s    0.496288 *  0.073156 *  0.236129 *  -2.86902    1.000000    
    797 O     s    0.768119 *  0.999642 *  0.133319 *  -2.86902    1.000000    
    798 O     s    0.618594 *  0.096822 *  0.097901 *  -2.86902    1.000000    
    799 O     s    0.794372 *  0.078217 *  0.202637 *  -2.86902    1.000000    
    800 O     s    0.773804 *  0.098767 *  0.099846 *  -2.86902    1.000000    
    801 O     s    0.925252 *  0.698847 *  0.168882 *  -2.86902    1.000000    
    802 O     s    0.914565 *  0.598411 *  0.199893 *  -2.86902    1.000000    
    803 O     s    0.996288 *  0.624680 *  0.135385 *  -2.86902    1.000000    
    804 O     s    0.922773 *  0.499642 *  0.236129 *  -2.86902    1.000000    
    805 O     s    0.996288 *  0.771473 *  0.133319 *  -2.86902    1.000000    
    806 O     s    0.899107 *  0.621949 *  0.097901 *  -2.86902    1.000000    
    807 O     s    0.917713 *  0.797726 *  0.202637 *  -2.86902    1.000000    
    808 O     s    0.897163 *  0.777159 *  0.099846 *  -2.86902    1.000000    
    809 O     s    0.297082 *  0.928607 *  0.168882 *  -2.86902    1.000000    
    810 O     s    0.397519 *  0.917920 *  0.199893 *  -2.86902    1.000000    
    811 O     s    0.371249 *  0.999642 *  0.135385 *  -2.86902    1.000000    
    812 O     s    0.496288 *  0.926128 *  0.236129 *  -2.86902    1.000000    
    813 O     s    0.224456 *  0.999642 *  0.133319 *  -2.86902    1.000000    
    814 O     s    0.373981 *  0.902462 *  0.097901 *  -2.86902    1.000000    
    815 O     s    0.198204 *  0.921067 *  0.202637 *  -2.86902    1.000000    
    816 O     s    0.218771 *  0.900517 *  0.099846 *  -2.86902    1.000000    
    817 O     s    0.067323 *  0.698847 *  0.832560 *  -2.86902    1.000000    
    818 O     s    0.078010 *  0.598411 *  0.801549 *  -2.86902    1.000000    
    819 O     s    0.996288 *  0.624680 *  0.866058 *  -2.86902    1.000000    
    820 O     s    0.069802 *  0.499642 *  0.765313 *  -2.86902    1.000000    
    821 O     s    0.996288 *  0.771473 *  0.868123 *  -2.86902    1.000000    
    822 O     s    0.093468 *  0.621949 *  0.903541 *  -2.86902    1.000000    
    823 O     s    0.074862 *  0.797726 *  0.798805 *  -2.86902    1.000000    
    824 O     s    0.095412 *  0.777159 *  0.901596 *  -2.86902    1.000000    
    825 O     s    0.297082 *  0.070678 *  0.832560 *  -2.86902    1.000000    
    826 O     s    0.397519 *  0.081364 *  0.801549 *  -2.86902    1.000000    
    827 O     s    0.371249 *  0.999642 *  0.866058 *  -2.86902    1.000000    
    828 O     s    0.496288 *  0.073156 *  0.765313 *  -2.86902    1.000000    
    829 O     s    0.224456 *  0.999642 *  0.868123 *  -2.86902    1.000000    
    830 O     s    0.373981 *  0.096822 *  0.903541 *  -2.86902    1.000000    
    831 O     s    0.198204 *  0.078217 *  0.798805 *  -2.86902    1.000000    
    832 O     s    0.218771 *  0.098767 *  0.901596 *  -2.86902    1.000000    
    833 O     s    0.925252 *  0.300437 *  0.832560 *  -2.86902    1.000000    
    834 O     s    0.914565 *  0.400873 *  0.801549 *  -2.86902    1.000000    
    835 O     s    0.996288 *  0.374604 *  0.866058 *  -2.86902    1.000000    
    836 O     s    0.922773 *  0.499642 *  0.765313 *  -2.86902    1.000000    
    837 O     s    0.996288 *  0.227811 *  0.868123 *  -2.86902    1.000000    
    838 O     s    0.899107 *  0.377335 *  0.903541 *  -2.86902    1.000000    
    839 O     s    0.917713 *  0.201558 *  0.798805 *  -2.86902    1.000000    
    840 O     s    0.897163 *  0.222126 *  0.901596 *  -2.86902    1.000000    
    841 O     s    0.695493 *  0.928607 *  0.832560 *  -2.86902    1.000000    
    842 O     s    0.595057 *  0.917920 *  0.801549 *  -2.86902    1.000000    
    843 O     s    0.621326 *  0.999642 *  0.866058 *  -2.86902    1.000000    
    844 O     s    0.496288 *  0.926128 *  0.765313 *  -2.86902    1.000000    
    845 O     s    0.768119 *  0.999642 *  0.868123 *  -2.86902    1.000000    
    846 O     s    0.618594 *  0.902462 *  0.903541 *  -2.86902    1.000000    
    847 O     s    0.794372 *  0.921067 *  0.798805 *  -2.86902    1.000000    
    848 O     s    0.773804 *  0.900517 *  0.901596 *  -2.86902    1.000000    
    849 O     s    0.164448 *  0.070678 *  0.301516 *  -2.86902    1.000000    
    850 O     s    0.195460 *  0.081364 *  0.401952 *  -2.86902    1.000000    
    851 O     s    0.130951 *  0.999642 *  0.375683 *  -2.86902    1.000000    
    852 O     s    0.231696 *  0.073156 *  0.500721 *  -2.86902    1.000000    
    853 O     s    0.128886 *  0.999642 *  0.228890 *  -2.86902    1.000000    
    854 O     s    0.093468 *  0.096822 *  0.378414 *  -2.86902    1.000000    
    855 O     s    0.198204 *  0.078217 *  0.202637 *  -2.86902    1.000000    
    856 O     s    0.095412 *  0.098767 *  0.223205 *  -2.86902    1.000000    
    857 O     s    0.164448 *  0.928607 *  0.699926 *  -2.86902    1.000000    
    858 O     s    0.195460 *  0.917920 *  0.599490 *  -2.86902    1.000000    
    859 O     s    0.130951 *  0.999642 *  0.625759 *  -2.86902    1.000000    
    860 O     s    0.231696 *  0.926128 *  0.500721 *  -2.86902    1.000000    
    861 O     s    0.128886 *  0.999642 *  0.772552 *  -2.86902    1.000000    
    862 O     s    0.093468 *  0.902462 *  0.623028 *  -2.86902    1.000000    
    863 O     s    0.198204 *  0.921067 *  0.798805 *  -2.86902    1.000000    
    864 O     s    0.095412 *  0.900517 *  0.778238 *  -2.86902    1.000000    
    865 O     s    0.067323 *  0.167803 *  0.699926 *  -2.86902    1.000000    
    866 O     s    0.078010 *  0.198814 *  0.599490 *  -2.86902    1.000000    
    867 O     s    0.996288 *  0.134306 *  0.625759 *  -2.86902    1.000000    
    868 O     s    0.069802 *  0.235051 *  0.500721 *  -2.86902    1.000000    
    869 O     s    0.996288 *  0.132240 *  0.772552 *  -2.86902    1.000000    
    870 O     s    0.093468 *  0.096822 *  0.623028 *  -2.86902    1.000000    
    871 O     s    0.074862 *  0.201558 *  0.798805 *  -2.86902    1.000000    
    872 O     s    0.095412 *  0.098767 *  0.778238 *  -2.86902    1.000000    
    873 O     s    0.828127 *  0.070678 *  0.699926 *  -2.86902    1.000000    
    874 O     s    0.797116 *  0.081364 *  0.599490 *  -2.86902    1.000000    
    875 O     s    0.861624 *  0.999642 *  0.625759 *  -2.86902    1.000000    
    876 O     s    0.760879 *  0.073156 *  0.500721 *  -2.86902    1.000000    
    877 O     s    0.863690 *  0.999642 *  0.772552 *  -2.86902    1.000000    
    878 O     s    0.899107 *  0.096822 *  0.623028 *  -2.86902    1.000000    
    879 O     s    0.794372 *  0.078217 *  0.798805 *  -2.86902    1.000000    
    880 O     s    0.897163 *  0.098767 *  0.778238 *  -2.86902    1.000000    
    881 O     s    0.925252 *  0.831481 *  0.699926 *  -2.86902    1.000000    
    882 O     s    0.914565 *  0.800470 *  0.599490 *  -2.86902    1.000000    
    883 O     s    0.996288 *  0.864979 *  0.625759 *  -2.86902    1.000000    
    884 O     s    0.922773 *  0.764234 *  0.500721 *  -2.86902    1.000000    
    885 O     s    0.996288 *  0.867044 *  0.772552 *  -2.86902    1.000000    
    886 O     s    0.899107 *  0.902462 *  0.623028 *  -2.86902    1.000000    
    887 O     s    0.917713 *  0.797726 *  0.798805 *  -2.86902    1.000000    
    888 O     s    0.897163 *  0.900517 *  0.778238 *  -2.86902    1.000000    
    889 O     s    0.828127 *  0.928607 *  0.301516 *  -2.86902    1.000000    
    890 O     s    0.797116 *  0.917920 *  0.401952 *  -2.86902    1.000000    
    891 O     s    0.861624 *  0.999642 *  0.375683 *  -2.86902    1.000000    
    892 O     s    0.760879 *  0.926128 *  0.500721 *  -2.86902    1.000000    
    893 O     s    0.863690 *  0.999642 *  0.228890 *  -2.86902    1.000000    
    894 O     s    0.899107 *  0.902462 *  0.378414 *  -2.86902    1.000000    
    895 O     s    0.794372 *  0.921067 *  0.202637 *  -2.86902    1.000000    
    896 O     s    0.897163 *  0.900517 *  0.223205 *  -2.86902    1.000000    
    897 O     s    0.067323 *  0.831481 *  0.301516 *  -2.86902    1.000000    
    898 O     s    0.078010 *  0.800470 *  0.401952 *  -2.86902    1.000000    
    899 O     s    0.996288 *  0.864979 *  0.375683 *  -2.86902    1.000000    
    900 O     s    0.069802 *  0.764234 *  0.500721 *  -2.86902    1.000000    
    901 O     s    0.996288 *  0.867044 *  0.228890 *  -2.86902    1.000000    
    902 O     s    0.093468 *  0.902462 *  0.378414 *  -2.86902    1.000000    
    903 O     s    0.074862 *  0.797726 *  0.202637 *  -2.86902    1.000000    
    904 O     s    0.095412 *  0.900517 *  0.223205 *  -2.86902    1.000000    
    905 O     s    0.925252 *  0.167803 *  0.301516 *  -2.86902    1.000000    
    906 O     s    0.914565 *  0.198814 *  0.401952 *  -2.86902    1.000000    
    907 O     s    0.996288 *  0.134306 *  0.375683 *  -2.86902    1.000000    
    908 O     s    0.922773 *  0.235051 *  0.500721 *  -2.86902    1.000000    
    909 O     s    0.996288 *  0.132240 *  0.228890 *  -2.86902    1.000000    
    910 O     s    0.899107 *  0.096822 *  0.378414 *  -2.86902    1.000000    
    911 O     s    0.917713 *  0.201558 *  0.202637 *  -2.86902    1.000000    
    912 O     s    0.897163 *  0.098767 *  0.223205 *  -2.86902    1.000000    
    913 O     s    0.695493 *  0.831481 *  0.929686 *  -2.86902    1.000000    
    914 O     s    0.595057 *  0.800470 *  0.918999 *  -2.86902    1.000000    
    915 O     s    0.164448 *  0.698847 *  0.929686 *  -2.86902    1.000000    
    916 O     s    0.195460 *  0.598411 *  0.918999 *  -2.86902    1.000000    
    917 O     s    0.297082 *  0.167803 *  0.929686 *  -2.86902    1.000000    
    918 O     s    0.397519 *  0.198814 *  0.918999 *  -2.86902    1.000000    
    919 O     s    0.828127 *  0.300437 *  0.929686 *  -2.86902    1.000000    
    920 O     s    0.797116 *  0.400873 *  0.918999 *  -2.86902    1.000000    
    921 O     s    0.695493 *  0.167803 *  0.071757 *  -2.86902    1.000000    
    922 O     s    0.595057 *  0.198814 *  0.082443 *  -2.86902    1.000000    
    923 O     s    0.828127 *  0.698847 *  0.071757 *  -2.86902    1.000000    
    924 O     s    0.797116 *  0.598411 *  0.082443 *  -2.86902    1.000000    
    925 O     s    0.297082 *  0.831481 *  0.071757 *  -2.86902    1.000000    
    926 O     s    0.397519 *  0.800470 *  0.082443 *  -2.86902    1.000000    
    927 O     s    0.164448 *  0.300437 *  0.071757 *  -2.86902    1.000000    
    928 O     s    0.195460 *  0.400873 *  0.082443 *  -2.86902    1.000000    
    929 O     s    0.925252 *  0.698847 *  0.832560 *  -2.86902    1.000000    
    930 O     s    0.914565 *  0.598411 *  0.801549 *  -2.86902    1.000000    
    931 O     s    0.297082 *  0.928607 *  0.832560 *  -2.86902    1.000000    
    932 O     s    0.397519 *  0.917920 *  0.801549 *  -2.86902    1.000000    
    933 O     s    0.067323 *  0.300437 *  0.832560 *  -2.86902    1.000000    
    934 O     s    0.078010 *  0.400873 *  0.801549 *  -2.86902    1.000000    
    935 O     s    0.695493 *  0.070678 *  0.832560 *  -2.86902    1.000000    
    936 O     s    0.595057 *  0.081364 *  0.801549 *  -2.86902    1.000000    
    937 O     s    0.925252 *  0.300437 *  0.168882 *  -2.86902    1.000000    
    938 O     s    0.914565 *  0.400873 *  0.199893 *  -2.86902    1.000000    
    939 O     s    0.695493 *  0.928607 *  0.168882 *  -2.86902    1.000000    
    940 O     s    0.595057 *  0.917920 *  0.199893 *  -2.86902    1.000000    
    941 O     s    0.067323 *  0.698847 *  0.168882 *  -2.86902    1.000000    
    942 O     s    0.078010 *  0.598411 *  0.199893 *  -2.86902    1.000000    
    943 O     s    0.297082 *  0.070678 *  0.168882 *  -2.86902    1.000000    
    944 O     s    0.397519 *  0.081364 *  0.199893 *  -2.86902    1.000000    
    945 O     s    0.828127 *  0.928607 *  0.699926 *  -2.86902    1.000000    
    946 O     s    0.797116 *  0.917920 *  0.599490 *  -2.86902    1.000000    
    947 O     s    0.828127 *  0.070678 *  0.301516 *  -2.86902    1.000000    
    948 O     s    0.797116 *  0.081364 *  0.401952 *  -2.86902    1.000000    
    949 O     s    0.925252 *  0.831481 *  0.301516 *  -2.86902    1.000000    
    950 O     s    0.914565 *  0.800470 *  0.401952 *  -2.86902    1.000000    
    951 O     s    0.164448 *  0.928607 *  0.301516 *  -2.86902    1.000000    
    952 O     s    0.195460 *  0.917920 *  0.401952 *  -2.86902    1.000000    
    953 O     s    0.067323 *  0.167803 *  0.301516 *  -2.86902    1.000000    
    954 O     s    0.078010 *  0.198814 *  0.401952 *  -2.86902    1.000000    
    955 O     s    0.164448 *  0.070678 *  0.699926 *  -2.86902    1.000000    
    956 O     s    0.195460 *  0.081364 *  0.599490 *  -2.86902    1.000000    
    957 O     s    0.925252 *  0.167803 *  0.699926 *  -2.86902    1.000000    
    958 O     s    0.914565 *  0.198814 *  0.599490 *  -2.86902    1.000000    
    959 O     s    0.067323 *  0.831481 *  0.699926 *  -2.86902    1.000000    
    960 O     s    0.078010 *  0.800470 *  0.599490 *  -2.86902    1.000000    
    961 O     s    0.797082 *  0.667803 *  0.571757 *  -2.86902    1.000000    
    962 O     s    0.897519 *  0.698814 *  0.582443 *  -2.86902    1.000000    
    963 O     s    0.871249 *  0.634306 *  0.500721 *  -2.86902    1.000000    
    964 O     s    0.996288 *  0.735050 *  0.574235 *  -2.86902    1.000000    
    965 O     s    0.724456 *  0.632240 *  0.500721 *  -2.86902    1.000000    
    966 O     s    0.873981 *  0.596822 *  0.597901 *  -2.86902    1.000000    
    967 O     s    0.698204 *  0.701558 *  0.579296 *  -2.86902    1.000000    
    968 O     s    0.718771 *  0.598767 *  0.599846 *  -2.86902    1.000000    
[...]
    949 O     s       0.000042      0.000087     -0.000031      0.000000
    950 O     s       0.000145      0.000040     -0.000023      0.000000
    951 O     s      -0.000085      0.000042     -0.000020      0.000000
    952 O     s      -0.000048      0.000146     -0.000016      0.000000
    953 O     s      -0.000043     -0.000087     -0.000032      0.000000
    954 O     s      -0.000145     -0.000039     -0.000024      0.000000
    955 O     s      -0.000087     -0.000044      0.000021      0.000000
    956 O     s      -0.000049     -0.000145      0.000017      0.000000
    957 O     s       0.000042     -0.000087      0.000031      0.000000
    958 O     s       0.000145     -0.000039      0.000024      0.000000
    959 O     s      -0.000042      0.000087      0.000031      0.000000
    960 O     s      -0.000144      0.000039      0.000024      0.000000
    961 O     s      -0.000032     -0.000087     -0.000044      0.000000
    962 O     s      -0.000025     -0.000039     -0.000147      0.000000
    963 O     s      -0.000023      0.000063      0.000006      0.000000
    964 O     s      -0.000006      0.000002      0.000066      0.000000
    965 O     s       0.000084      0.000060     -0.000005      0.000000
    966 O     s      -0.000162      0.000047      0.000047      0.000000
    967 O     s      -0.000045     -0.000046     -0.000135      0.000000
    968 O     s       0.000120     -0.000000      0.000000      0.000000
    969 O     s       0.000086     -0.000020     -0.000043      0.000000
    970 O     s       0.000048     -0.000017     -0.000145      0.000000
    971 O     s      -0.000061     -0.000025     -0.000006      0.000000
    972 O     s      -0.000001      0.000007      0.000064      0.000000
    973 O     s      -0.000058      0.000085      0.000005      0.000000
    974 O     s      -0.000039     -0.000159      0.000040      0.000000
    975 O     s       0.000042     -0.000041     -0.000133      0.000000
    976 O     s      -0.000005      0.000126      0.000005      0.000000
    977 O     s       0.000029      0.000086     -0.000043      0.000000
    978 O     s       0.000023      0.000039     -0.000147      0.000000
    979 O     s       0.000022     -0.000063      0.000007      0.000000
    980 O     s       0.000006     -0.000003      0.000065      0.000000
    981 O     s      -0.000085     -0.000061     -0.000005      0.000000
    982 O     s       0.000161     -0.000046      0.000046      0.000000
    983 O     s       0.000045      0.000046     -0.000135      0.000000
    984 O     s      -0.000120     -0.000001     -0.000001      0.000000
    985 O     s      -0.000086      0.000019     -0.000042      0.000000
    986 O     s      -0.000049      0.000016     -0.000145      0.000000
    987 O     s       0.000061      0.000024     -0.000006      0.000000
    988 O     s       0.000000     -0.000007      0.000065      0.000000
    989 O     s       0.000058     -0.000086      0.000006      0.000000
    990 O     s       0.000039      0.000159      0.000040      0.000000
    991 O     s      -0.000040      0.000041     -0.000133      0.000000
    992 O     s       0.000006     -0.000128      0.000006      0.000000
    993 O     s      -0.000031      0.000086      0.000043      0.000000
    994 O     s      -0.000024      0.000039      0.000148      0.000000
    995 O     s      -0.000023     -0.000063     -0.000007      0.000000
    996 O     s      -0.000006     -0.000002     -0.000066      0.000000
    997 O     s       0.000084     -0.000060      0.000006      0.000000
    998 O     s      -0.000161     -0.000047     -0.000046      0.000000
    999 O     s      -0.000046      0.000046      0.000135      0.000000
   1000 O     s       0.000120      0.000001     -0.000000      0.000000
   1001 O     s      -0.000085     -0.000020      0.000042      0.000000
   1002 O     s      -0.000049     -0.000017      0.000145      0.000000
   1003 O     s       0.000061     -0.000024      0.000006      0.000000
   1004 O     s       0.000000      0.000006     -0.000065      0.000000
   1005 O     s       0.000058      0.000085     -0.000005      0.000000
   1006 O     s       0.000039     -0.000159     -0.000039      0.000000
   1007 O     s      -0.000041     -0.000041      0.000133      0.000000
   1008 O     s       0.000005      0.000127     -0.000006      0.000000
   1009 O     s       0.000030     -0.000086      0.000042      0.000000
   1010 O     s       0.000023     -0.000038      0.000147      0.000000
   1011 O     s       0.000022      0.000062     -0.000005      0.000000
   1012 O     s       0.000007      0.000003     -0.000066      0.000000
   1013 O     s      -0.000085      0.000060      0.000004      0.000000
   1014 O     s       0.000161      0.000047     -0.000047      0.000000
   1015 O     s       0.000046     -0.000045      0.000134      0.000000
   1016 O     s      -0.000120     -0.000000      0.000001      0.000000
   1017 O     s       0.000085      0.000020      0.000042      0.000000
   1018 O     s       0.000048      0.000016      0.000145      0.000000
   1019 O     s      -0.000060      0.000024      0.000006      0.000000
   1020 O     s      -0.000001     -0.000006     -0.000064      0.000000
   1021 O     s      -0.000059     -0.000086     -0.000007      0.000000
   1022 O     s      -0.000038      0.000158     -0.000040      0.000000
   1023 O     s       0.000040      0.000042      0.000133      0.000000
   1024 O     s      -0.000005     -0.000126     -0.000003      0.000000
   1025 O     s      -0.000042     -0.000031     -0.000087      0.000000
   1026 O     s      -0.000145     -0.000025     -0.000039      0.000000
   1027 O     s       0.000007     -0.000024      0.000063      0.000000
   1028 O     s       0.000067     -0.000006      0.000002      0.000000
   1029 O     s      -0.000005      0.000086      0.000059      0.000000
   1030 O     s       0.000047     -0.000164      0.000047      0.000000
   1031 O     s      -0.000133     -0.000047     -0.000046      0.000000
   1032 O     s      -0.000001      0.000122     -0.000000      0.000000
   1033 O     s       0.000021     -0.000042     -0.000086      0.000000
   1034 O     s       0.000016     -0.000147     -0.000048      0.000000
   1035 O     s       0.000022     -0.000005      0.000062      0.000000
   1036 O     s      -0.000007      0.000066      0.000002      0.000000
   1037 O     s      -0.000084      0.000004      0.000059      0.000000
   1038 O     s       0.000157      0.000039      0.000039      0.000000
   1039 O     s       0.000041     -0.000133     -0.000042      0.000000
   1040 O     s      -0.000124      0.000005      0.000005      0.000000
   1041 O     s       0.000043      0.000031     -0.000087      0.000000
   1042 O     s       0.000145      0.000024     -0.000038      0.000000
   1043 O     s      -0.000007      0.000023      0.000062      0.000000
   1044 O     s      -0.000066      0.000007      0.000003      0.000000
   1045 O     s       0.000006     -0.000085      0.000059      0.000000
   1046 O     s      -0.000046      0.000164      0.000047      0.000000
   1047 O     s       0.000133      0.000047     -0.000047      0.000000
   1048 O     s      -0.000001     -0.000122     -0.000001      0.000000
   1049 O     s      -0.000019      0.000042     -0.000087      0.000000
   1050 O     s      -0.000016      0.000146     -0.000049      0.000000
   1051 O     s      -0.000022      0.000007      0.000062      0.000000
   1052 O     s       0.000006     -0.000066      0.000002      0.000000
   1053 O     s       0.000085     -0.000006      0.000060      0.000000
   1054 O     s      -0.000156     -0.000039      0.000039      0.000000
   1055 O     s      -0.000040      0.000133     -0.000042      0.000000
   1056 O     s       0.000125     -0.000005      0.000006      0.000000
   1057 O     s      -0.000043      0.000034      0.000087      0.000000
   1058 O     s      -0.000145      0.000025      0.000039      0.000000
   1059 O     s       0.000007      0.000023     -0.000063      0.000000
   1060 O     s       0.000067      0.000008     -0.000002      0.000000
   1061 O     s      -0.000006     -0.000085     -0.000057      0.000000
   1062 O     s       0.000048      0.000164     -0.000048      0.000000
   1063 O     s      -0.000133      0.000051      0.000044      0.000000
   1064 O     s      -0.000001     -0.000121      0.000003      0.000000
   1065 O     s      -0.000020     -0.000041      0.000087      0.000000
   1066 O     s      -0.000016     -0.000146      0.000048      0.000000
   1067 O     s      -0.000022     -0.000006     -0.000062      0.000000
   1068 O     s       0.000006      0.000065     -0.000002      0.000000
   1069 O     s       0.000085      0.000006     -0.000060      0.000000
   1070 O     s      -0.000157      0.000040     -0.000039      0.000000
   1071 O     s      -0.000041     -0.000133      0.000040      0.000000
   1072 O     s       0.000125      0.000005     -0.000006      0.000000
   1073 O     s       0.000042     -0.000031      0.000087      0.000000
   1074 O     s       0.000144     -0.000024      0.000039      0.000000
   1075 O     s      -0.000006     -0.000023     -0.000062      0.000000
   1076 O     s      -0.000066     -0.000009     -0.000002      0.000000
   1077 O     s       0.000006      0.000085     -0.000060      0.000000
   1078 O     s      -0.000047     -0.000164     -0.000047      0.000000
   1079 O     s       0.000133     -0.000045      0.000046      0.000000
   1080 O     s       0.000000      0.000122     -0.000000      0.000000
   1081 O     s       0.000024      0.000044      0.000088      0.000000
   1082 O     s       0.000018      0.000146      0.000049      0.000000
   1083 O     s       0.000023      0.000007     -0.000063      0.000000
   1084 O     s      -0.000005     -0.000064     -0.000003      0.000000
   1085 O     s      -0.000083     -0.000003     -0.000059      0.000000
   1086 O     s       0.000157     -0.000040     -0.000040      0.000000
   1087 O     s       0.000039      0.000133      0.000041      0.000000
   1088 O     s      -0.000124     -0.000005     -0.000004      0.000000
   1089 O     s      -0.000085     -0.000044     -0.000031      0.000000
   1090 O     s      -0.000038     -0.000146     -0.000025      0.000000
   1091 O     s       0.000060      0.000008     -0.000024      0.000000
   1092 O     s      -0.000000      0.000066     -0.000008      0.000000
   1093 O     s       0.000058     -0.000006      0.000086      0.000000
   1094 O     s       0.000046      0.000048     -0.000164      0.000000
   1095 O     s      -0.000046     -0.000135     -0.000046      0.000000
   1096 O     s      -0.000001     -0.000000      0.000122      0.000000
   1097 O     s      -0.000093      0.000046      0.000035      0.000000
   1098 O     s      -0.000037      0.000145      0.000027      0.000000
   1099 O     s       0.000063     -0.000006      0.000025      0.000000
   1100 O     s       0.000000     -0.000067      0.000006      0.000000
   1101 O     s       0.000060      0.000009     -0.000087      0.000000
   1102 O     s       0.000066     -0.000053      0.000180      0.000000
   1103 O     s      -0.000047      0.000134      0.000045      0.000000
   1104 O     s       0.000001      0.000006     -0.000122      0.000000
   1105 O     s      -0.000041     -0.000088      0.000018      0.000000
   1106 O     s      -0.000144     -0.000051      0.000015      0.000000
   1107 O     s      -0.000007      0.000061      0.000023      0.000000
   1108 O     s       0.000066      0.000001     -0.000008      0.000000
   1109 O     s       0.000006      0.000060     -0.000085      0.000000
   1110 O     s       0.000036      0.000039      0.000158      0.000000
   1111 O     s      -0.000131     -0.000042      0.000040      0.000000
   1112 O     s       0.000007      0.000007     -0.000128      0.000000
   1113 O     s       0.000087     -0.000044      0.000030      0.000000
   1114 O     s       0.000045     -0.000147      0.000025      0.000000
   1115 O     s      -0.000063     -0.000002      0.000025      0.000000
   1116 O     s       0.000002      0.000067      0.000005      0.000000
   1117 O     s      -0.000055     -0.000005     -0.000085      0.000000
   1118 O     s      -0.000048      0.000045      0.000164      0.000000
   1119 O     s       0.000045     -0.000135      0.000045      0.000000
   1120 O     s       0.000000     -0.000001     -0.000122      0.000000
   1121 O     s       0.000031      0.000084      0.000035      0.000000
   1122 O     s       0.000130      0.000062      0.000019      0.000000
   1123 O     s      -0.000013     -0.000056      0.000012      0.000000
   1124 O     s      -0.000094      0.000006     -0.000027      0.000000
   1125 O     s      -0.000010     -0.000057     -0.000085      0.000000
   1126 O     s      -0.000047     -0.000036      0.000167      0.000000
   1127 O     s       0.000130      0.000041      0.000042      0.000000
   1128 O     s      -0.000002     -0.000003     -0.000125      0.000000
   1129 O     s       0.000084      0.000044     -0.000032      0.000000
   1130 O     s       0.000038      0.000147     -0.000023      0.000000
   1131 O     s      -0.000061     -0.000007     -0.000025      0.000000
   1132 O     s      -0.000002     -0.000065     -0.000002      0.000000
   1133 O     s      -0.000057      0.000005      0.000085      0.000000
   1134 O     s      -0.000046     -0.000047     -0.000163      0.000000
   1135 O     s       0.000045      0.000135     -0.000046      0.000000
   1136 O     s       0.000001      0.000000      0.000122      0.000000
   1137 O     s      -0.000039      0.000087     -0.000021      0.000000
   1138 O     s      -0.000143      0.000048     -0.000013      0.000000
   1139 O     s      -0.000009     -0.000061     -0.000025      0.000000
   1140 O     s       0.000089     -0.000002      0.000006      0.000000
   1141 O     s       0.000008     -0.000059      0.000085      0.000000
   1142 O     s       0.000041     -0.000038     -0.000160      0.000000
   1143 O     s      -0.000130      0.000040     -0.000041      0.000000
   1144 O     s       0.000006     -0.000006      0.000127      0.000000
   1145 O     s       0.000042     -0.000088     -0.000021      0.000000
   1146 O     s       0.000144     -0.000048     -0.000017      0.000000
   1147 O     s       0.000006      0.000063     -0.000023      0.000000
   1148 O     s      -0.000066      0.000003      0.000007      0.000000
   1149 O     s      -0.000006      0.000060      0.000085      0.000000
   1150 O     s      -0.000040      0.000040     -0.000159      0.000000
   1151 O     s       0.000131     -0.000041     -0.000041      0.000000
   1152 O     s      -0.000005      0.000005      0.000126      0.000000
   1153 O     s       0.000021      0.000088      0.000043      0.000000
   1154 O     s       0.000017      0.000049      0.000146      0.000000
   1155 O     s      -0.000085      0.000032      0.000043      0.000000
   1156 O     s      -0.000039      0.000024      0.000146      0.000000
   1157 O     s      -0.000021     -0.000087      0.000042      0.000000
   1158 O     s      -0.000017     -0.000048      0.000146      0.000000
   1159 O     s       0.000086     -0.000031      0.000044      0.000000
   1160 O     s       0.000038     -0.000024      0.000146      0.000000
   1161 O     s       0.000021     -0.000087     -0.000042      0.000000
   1162 O     s       0.000016     -0.000048     -0.000146      0.000000
   1163 O     s       0.000085      0.000029     -0.000043      0.000000
   1164 O     s       0.000039      0.000023     -0.000146      0.000000
   1165 O     s      -0.000020      0.000087     -0.000042      0.000000
   1166 O     s      -0.000016      0.000048     -0.000146      0.000000
   1167 O     s      -0.000085     -0.000032     -0.000044      0.000000
   1168 O     s      -0.000039     -0.000024     -0.000146      0.000000
   1169 O     s       0.000040      0.000021      0.000087      0.000000
   1170 O     s       0.000144      0.000017      0.000051      0.000000
   1171 O     s      -0.000030      0.000042      0.000086      0.000000
   1172 O     s      -0.000022      0.000147      0.000039      0.000000
   1173 O     s      -0.000041     -0.000020      0.000087      0.000000
   1174 O     s      -0.000144     -0.000015      0.000049      0.000000
   1175 O     s       0.000030     -0.000043      0.000085      0.000000
   1176 O     s       0.000025     -0.000148      0.000038      0.000000
   1177 O     s       0.000041     -0.000021     -0.000088      0.000000
   1178 O     s       0.000144     -0.000017     -0.000049      0.000000
   1179 O     s       0.000030      0.000043     -0.000086      0.000000
   1180 O     s       0.000023      0.000148     -0.000039      0.000000
   1181 O     s      -0.000042      0.000020     -0.000088      0.000000
   1182 O     s      -0.000143      0.000016     -0.000049      0.000000
   1183 O     s      -0.000031     -0.000044     -0.000087      0.000000
   1184 O     s      -0.000024     -0.000147     -0.000039      0.000000
   1185 O     s       0.000085      0.000042      0.000027      0.000000
   1186 O     s       0.000043      0.000147      0.000020      0.000000
   1187 O     s       0.000086     -0.000043     -0.000021      0.000000
   1188 O     s       0.000049     -0.000146     -0.000017      0.000000
   1189 O     s       0.000042      0.000087     -0.000031      0.000000
   1190 O     s       0.000143      0.000037     -0.000027      0.000000
   1191 O     s      -0.000085      0.000042     -0.000020      0.000000
   1192 O     s      -0.000049      0.000146     -0.000016      0.000000
   1193 O     s      -0.000043     -0.000088     -0.000031      0.000000
   1194 O     s      -0.000145     -0.000040     -0.000025      0.000000
   1195 O     s      -0.000085     -0.000042      0.000016      0.000000
   1196 O     s      -0.000050     -0.000144      0.000015      0.000000
   1197 O     s       0.000043     -0.000087      0.000031      0.000000
   1198 O     s       0.000145     -0.000038      0.000023      0.000000
   1199 O     s      -0.000037      0.000094      0.000042      0.000000
   1200 O     s      -0.000106      0.000042      0.000035      0.000000
--------------------------------------------------------------------------------
  Maximum abs         0.000185      0.000189      0.000180      0.000000
--------------------------------------------------------------------------------


  Time to end of optimisation =      63.6567 seconds


  Peak dynamic memory used =      47.05 MB 


  Timing analysis for GULP :

--------------------------------------------------------------------------------
  Task / Subroutine                                          Time (Seconds)
--------------------------------------------------------------------------------
  Calculation of reciprocal space energy and derivatives          9.2633
  Calculation of real space energy and derivatives               12.5662
  Calculation of three-body energy and derivatives                1.5014
  Calculation and manipulation of Hessian matrix                 22.1578
  Calculation of matrix inversion                                17.6893
  Symmetry generation of equivalent positions                     0.0018
  Global summation overhead                                       0.3852
--------------------------------------------------------------------------------
  Total CPU time                                                 63.6568
--------------------------------------------------------------------------------


  Dump file written as ReferenceDataBase/PWN.grs
  CIF file written as ReferenceDataBase/PWN_opt.cif


  Job Finished at 14:30.55 20th April      2023                               

