********************************************************************************
*                       GENERAL UTILITY LATTICE PROGRAM                        *
*                                 Julian Gale                                  *
*                       Curtin Institute for Computation                       *
*                    School of Molecular and Life Sciences                     *
*                    Curtin University, Western Australia                      *
********************************************************************************
* Version = 6.1.2 * Last modified =   3rd November 2022                        *
********************************************************************************
*  optimise     - perform optimisation run                                     *
*  conp         - constant pressure calculation                                *
*  nosymmetry   - turn off symmetry after initial structure generation         *
********************************************************************************

  Job Started  at 17:49.20 20th April      2023                               

  Number of CPUs =     8


  Total number of configurations input =      1

********************************************************************************
*  Input for Configuration =   1 : ReferenceDataBase/RHOG5-PST-20              *
********************************************************************************

  Formula = Si2640O5280                                                 

  Number of irreducible atoms/shells =   13200


  Total number atoms/shells =   13200

  Dimensionality = 3               :  Bulk   



  Cartesian lattice vectors (Angstroms) :

       54.050000    0.000000    0.000000
        0.000000   54.013000    0.000000
        0.000000    0.000000   54.053000

  Cell parameters (Angstroms/Degrees):

  a =      54.0500    alpha =  90.0000
  b =      54.0130    beta  =  90.0000
  c =      54.0530    gamma =  90.0000

  Initial cell volume =      157802.471440 Angs**3

  Temperature of configuration =   0.00     K 

  Pressure of configuration =         0.000 GPa 

  Fractional coordinates of asymmetric unit :

--------------------------------------------------------------------------------
   No.  Atomic       x           y          z         Charge      Occupancy
        Label      (Frac)      (Frac)     (Frac)        (e)         (Frac)  
--------------------------------------------------------------------------------
      1 Si    c    0.528600 *  0.972300 *  0.568300 *   4.00000    1.000000    
      2 Si    c    0.618400 *  0.063400 *  0.658200 *   4.00000    1.000000    
      3 Si    c    0.750400 *  0.790700 *  0.653200 *   4.00000    1.000000    
      4 Si    c    0.528800 *  0.063400 *  0.387400 *   4.00000    1.000000    
      5 Si    c    0.341300 *  0.063300 *  0.561300 *   4.00000    1.000000    
      6 Si    c    0.789400 *  0.432200 *  0.471700 *   4.00000    1.000000    
      7 Si    c    0.756100 *  0.386700 *  0.471500 *   4.00000    1.000000    
      8 Si    c    0.698900 *  0.386400 *  0.471400 *   4.00000    1.000000    
      9 Si    c    0.665500 *  0.432200 *  0.471700 *   4.00000    1.000000    
     10 Si    c    0.608700 *  0.432100 *  0.471700 *   4.00000    1.000000    
     11 Si    c    0.659200 *  0.381600 *  0.243700 *   4.00000    1.000000    
     12 Si    c    0.699800 *  0.438100 *  0.340500 *   4.00000    1.000000    
     13 Si    c    0.659600 *  0.381400 *  0.300400 *   4.00000    1.000000    
     14 Si    c    0.659800 *  0.244000 *  0.438000 *   4.00000    1.000000    
     15 Si    c    0.119700 *  0.659100 *  0.381600 *   4.00000    1.000000    
     16 Si    c    0.154400 *  0.432300 *  0.471700 *   4.00000    1.000000    
     17 Si    c    0.120100 *  0.387700 *  0.471400 *   4.00000    1.000000    
     18 Si    c    0.119800 *  0.562100 *  0.659100 *   4.00000    1.000000    
     19 Si    c    0.847200 *  0.705500 *  0.562100 *   4.00000    1.000000    
     20 Si    c    0.790200 *  0.705200 *  0.619400 *   4.00000    1.000000    
     21 Si    c    0.847300 *  0.704900 *  0.619100 *   4.00000    1.000000    
     22 Si    c    0.971700 *  0.562400 *  0.704000 *   4.00000    1.000000    
     23 Si    c    0.028700 *  0.619500 *  0.703300 *   4.00000    1.000000    
     24 Si    c    0.971900 *  0.709600 *  0.250900 *   4.00000    1.000000    
     25 Si    c    0.971800 *  0.652800 *  0.250700 *   4.00000    1.000000    
     26 Si    c    0.790200 *  0.438300 *  0.294500 *   4.00000    1.000000    
     27 O     c    0.364300 *  0.055400 *  0.455500 *   0.86902    1.000000    
     28 O     c    0.666600 *  0.091600 *  0.557300 *   0.86902    1.000000    
     29 O     c    0.622200 *  0.091500 *  0.333400 *   0.86902    1.000000    
     30 O     c    0.533700 *  0.091800 *  0.394500 *   0.86902    1.000000    
     31 O     c    0.772300 *  0.409900 *  0.462700 *   0.86902    1.000000    
     32 O     c    0.727500 *  0.393300 *  0.466700 *   0.86902    1.000000    
     33 O     c    0.682500 *  0.409600 *  0.462900 *   0.86902    1.000000    
     34 O     c    0.637100 *  0.424200 *  0.467700 *   0.86902    1.000000    
     35 O     c    0.182800 *  0.423900 *  0.468300 *   0.86902    1.000000    
     36 O     c    0.652500 *  0.410200 *  0.238700 *   0.86902    1.000000    
     37 O     c    0.667500 *  0.272600 *  0.376800 *   0.86902    1.000000    
     38 O     c    0.695600 *  0.349500 *  0.409200 *   0.86902    1.000000    
     39 O     c    0.728100 *  0.443200 *  0.333400 *   0.86902    1.000000    
     40 O     c    0.363300 *  0.455700 *  0.764500 *   0.86902    1.000000    
     41 O     c    0.362900 *  0.455500 *  0.690600 *   0.86902    1.000000    
     42 O     c    0.137200 *  0.410100 *  0.462400 *   0.86902    1.000000    
     43 O     c    0.590200 *  0.125300 *  0.348600 *   0.86902    1.000000    
     44 O     c    0.127900 *  0.455900 *  0.636200 *   0.86902    1.000000    
     45 O     c    0.852000 *  0.712200 *  0.590700 *   0.86902    1.000000    
     46 O     c    0.818600 *  0.698900 *  0.557400 *   0.86902    1.000000    
     47 O     c    0.818700 *  0.698200 *  0.623900 *   0.86902    1.000000    
     48 O     c    0.785400 *  0.712600 *  0.590900 *   0.86902    1.000000    
     49 O     c    0.967100 *  0.591100 *  0.710500 *   0.86902    1.000000    
     50 O     c    0.773600 *  0.318900 *  0.627600 *   0.86902    1.000000    
     51 O     c    0.773500 *  0.318100 *  0.553800 *   0.86902    1.000000    
     52 O     c    0.045700 *  0.447500 *  0.318600 *   0.86902    1.000000    
     53 O     c    0.045600 *  0.373300 *  0.319600 *   0.86902    1.000000    
     54 O     c    0.863800 *  0.447000 *  0.682100 *   0.86902    1.000000    
     55 O     c    0.863400 *  0.373400 *  0.680700 *   0.86902    1.000000    
     56 O     c    0.966800 *  0.681200 *  0.257900 *   0.86902    1.000000    
     57 O     c    0.954800 *  0.228300 *  0.644300 *   0.86902    1.000000    
     58 O     c    0.954400 *  0.771900 *  0.718000 *   0.86902    1.000000    
     59 O     c    0.036800 *  0.726900 *  0.635400 *   0.86902    1.000000    
     60 O     c    0.727400 *  0.036800 *  0.545500 *   0.86902    1.000000    
     61 O     c    0.281800 *  0.136300 *  0.772100 *   0.86902    1.000000    
     62 O     c    0.319000 *  0.257700 *  0.852000 *   0.86902    1.000000    
     63 O     c    0.355700 *  0.227400 *  0.863700 *   0.86902    1.000000    
     64 O     c    0.758200 *  0.819000 *  0.286000 *   0.86902    1.000000    
     65 O     c    0.410500 *  0.058100 *  0.348600 *   0.86902    1.000000    
     66 O     c    0.538000 *  0.046400 *  0.409800 *   0.86902    1.000000    
     67 Si    c    0.028600 *  0.472300 *  0.068300 *   4.00000    1.000000    
     68 Si    c    0.118400 *  0.563400 *  0.158200 *   4.00000    1.000000    
     69 Si    c    0.250400 *  0.290800 *  0.153200 *   4.00000    1.000000    
     70 Si    c    0.028800 *  0.563400 *  0.887300 *   4.00000    1.000000    
     71 Si    c    0.841300 *  0.563300 *  0.061300 *   4.00000    1.000000    
     72 Si    c    0.289400 *  0.932200 *  0.971700 *   4.00000    1.000000    
     73 Si    c    0.256100 *  0.886700 *  0.971500 *   4.00000    1.000000    
     74 Si    c    0.198900 *  0.886400 *  0.971400 *   4.00000    1.000000    
     75 Si    c    0.165500 *  0.932200 *  0.971700 *   4.00000    1.000000    
     76 Si    c    0.108700 *  0.932100 *  0.971700 *   4.00000    1.000000    
     77 Si    c    0.159200 *  0.881600 *  0.743800 *   4.00000    1.000000    
     78 Si    c    0.199700 *  0.938100 *  0.840500 *   4.00000    1.000000    
     79 Si    c    0.159600 *  0.881400 *  0.800400 *   4.00000    1.000000    
     80 Si    c    0.159800 *  0.744000 *  0.938000 *   4.00000    1.000000    
     81 Si    c    0.619600 *  0.159000 *  0.881600 *   4.00000    1.000000    
     82 Si    c    0.654400 *  0.932300 *  0.971700 *   4.00000    1.000000    
     83 Si    c    0.620100 *  0.887700 *  0.971400 *   4.00000    1.000000    
     84 Si    c    0.619900 *  0.062100 *  0.159100 *   4.00000    1.000000    
     85 Si    c    0.347200 *  0.205500 *  0.062100 *   4.00000    1.000000    
     86 Si    c    0.290200 *  0.205200 *  0.119300 *   4.00000    1.000000    
     87 Si    c    0.347300 *  0.204900 *  0.119100 *   4.00000    1.000000    
     88 Si    c    0.471700 *  0.062400 *  0.204000 *   4.00000    1.000000    
     89 Si    c    0.528800 *  0.119500 *  0.203200 *   4.00000    1.000000    
     90 Si    c    0.471900 *  0.209600 *  0.750900 *   4.00000    1.000000    
     91 Si    c    0.471700 *  0.152700 *  0.750700 *   4.00000    1.000000    
     92 Si    c    0.290100 *  0.938300 *  0.794500 *   4.00000    1.000000    
     93 O     c    0.864300 *  0.555400 *  0.955500 *   0.86902    1.000000    
     94 O     c    0.166600 *  0.591600 *  0.057300 *   0.86902    1.000000    
     95 O     c    0.122200 *  0.591500 *  0.833400 *   0.86902    1.000000    
     96 O     c    0.033700 *  0.591800 *  0.894500 *   0.86902    1.000000    
     97 O     c    0.272200 *  0.909900 *  0.962700 *   0.86902    1.000000    
     98 O     c    0.227500 *  0.893300 *  0.966700 *   0.86902    1.000000    
     99 O     c    0.182500 *  0.909600 *  0.962900 *   0.86902    1.000000    
    100 O     c    0.137100 *  0.924200 *  0.967700 *   0.86902    1.000000    
    101 O     c    0.682800 *  0.923900 *  0.968300 *   0.86902    1.000000    
    102 O     c    0.152500 *  0.910200 *  0.738700 *   0.86902    1.000000    
    103 O     c    0.167400 *  0.772600 *  0.876800 *   0.86902    1.000000    
    104 O     c    0.195600 *  0.849500 *  0.909200 *   0.86902    1.000000    
    105 O     c    0.228100 *  0.943200 *  0.833400 *   0.86902    1.000000    
    106 O     c    0.863300 *  0.955700 *  0.264500 *   0.86902    1.000000    
    107 O     c    0.862900 *  0.955500 *  0.190600 *   0.86902    1.000000    
    108 O     c    0.637200 *  0.910000 *  0.962400 *   0.86902    1.000000    
    109 O     c    0.090200 *  0.625300 *  0.848600 *   0.86902    1.000000    
    110 O     c    0.627900 *  0.955900 *  0.136200 *   0.86902    1.000000    
    111 O     c    0.352000 *  0.212200 *  0.090700 *   0.86902    1.000000    
    112 O     c    0.318600 *  0.198900 *  0.057400 *   0.86902    1.000000    
    113 O     c    0.318700 *  0.198200 *  0.123900 *   0.86902    1.000000    
    114 O     c    0.285400 *  0.212500 *  0.090900 *   0.86902    1.000000    
    115 O     c    0.467100 *  0.091100 *  0.210500 *   0.86902    1.000000    
    116 O     c    0.273600 *  0.819000 *  0.127600 *   0.86902    1.000000    
    117 O     c    0.273500 *  0.818100 *  0.053800 *   0.86902    1.000000    
    118 O     c    0.545700 *  0.947400 *  0.818600 *   0.86902    1.000000    
    119 O     c    0.545600 *  0.873300 *  0.819600 *   0.86902    1.000000    
    120 O     c    0.363900 *  0.947000 *  0.182100 *   0.86902    1.000000    
    121 O     c    0.363400 *  0.873400 *  0.180700 *   0.86902    1.000000    
    122 O     c    0.466800 *  0.181200 *  0.757900 *   0.86902    1.000000    
    123 O     c    0.454800 *  0.728300 *  0.144300 *   0.86902    1.000000    
    124 O     c    0.454400 *  0.271900 *  0.218000 *   0.86902    1.000000    
    125 O     c    0.536800 *  0.227000 *  0.135400 *   0.86902    1.000000    
    126 O     c    0.227400 *  0.536800 *  0.045500 *   0.86902    1.000000    
    127 O     c    0.781800 *  0.636300 *  0.272100 *   0.86902    1.000000    
    128 O     c    0.819000 *  0.757700 *  0.352000 *   0.86902    1.000000    
    129 O     c    0.855700 *  0.727400 *  0.363800 *   0.86902    1.000000    
    130 O     c    0.258200 *  0.319000 *  0.786000 *   0.86902    1.000000    
    131 O     c    0.910500 *  0.558100 *  0.848700 *   0.86902    1.000000    
    132 O     c    0.038000 *  0.546400 *  0.909800 *   0.86902    1.000000    
    133 Si    c    0.471900 *  0.028800 *  0.568300 *   4.00000    1.000000    
    134 Si    c    0.382100 *  0.937700 *  0.658200 *   4.00000    1.000000    
    135 Si    c    0.250100 *  0.210300 *  0.653200 *   4.00000    1.000000    
    136 Si    c    0.471700 *  0.937700 *  0.387400 *   4.00000    1.000000    
    137 Si    c    0.659200 *  0.937800 *  0.561300 *   4.00000    1.000000    
    138 Si    c    0.211000 *  0.568900 *  0.471700 *   4.00000    1.000000    
    139 Si    c    0.244400 *  0.614400 *  0.471500 *   4.00000    1.000000    
    140 Si    c    0.301500 *  0.614700 *  0.471400 *   4.00000    1.000000    
    141 Si    c    0.334900 *  0.568900 *  0.471700 *   4.00000    1.000000    
    142 Si    c    0.391700 *  0.569000 *  0.471700 *   4.00000    1.000000    
    143 Si    c    0.341200 *  0.619500 *  0.243700 *   4.00000    1.000000    
    144 Si    c    0.300700 *  0.563100 *  0.340500 *   4.00000    1.000000    
    145 Si    c    0.340900 *  0.619700 *  0.300400 *   4.00000    1.000000    
    146 Si    c    0.340700 *  0.757000 *  0.438000 *   4.00000    1.000000    
    147 Si    c    0.880800 *  0.342000 *  0.381600 *   4.00000    1.000000    
    148 Si    c    0.846000 *  0.568800 *  0.471700 *   4.00000    1.000000    
    149 Si    c    0.880400 *  0.613400 *  0.471400 *   4.00000    1.000000    
    150 Si    c    0.880600 *  0.439000 *  0.659100 *   4.00000    1.000000    
    151 Si    c    0.153200 *  0.295600 *  0.562100 *   4.00000    1.000000    
    152 Si    c    0.210300 *  0.295900 *  0.619300 *   4.00000    1.000000    
    153 Si    c    0.153200 *  0.296200 *  0.619100 *   4.00000    1.000000    
    154 Si    c    0.028700 *  0.438600 *  0.704000 *   4.00000    1.000000    
    155 Si    c    0.971700 *  0.381600 *  0.703300 *   4.00000    1.000000    
    156 Si    c    0.028600 *  0.291500 *  0.250900 *   4.00000    1.000000    
    157 Si    c    0.028700 *  0.348300 *  0.250700 *   4.00000    1.000000    
    158 Si    c    0.210300 *  0.562800 *  0.294500 *   4.00000    1.000000    
    159 O     c    0.636100 *  0.945700 *  0.455500 *   0.86902    1.000000    
    160 O     c    0.333900 *  0.909400 *  0.557300 *   0.86902    1.000000    
    161 O     c    0.378200 *  0.909500 *  0.333400 *   0.86902    1.000000    
    162 O     c    0.466700 *  0.909200 *  0.394500 *   0.86902    1.000000    
    163 O     c    0.228200 *  0.591200 *  0.462700 *   0.86902    1.000000    
    164 O     c    0.273000 *  0.607800 *  0.466700 *   0.86902    1.000000    
    165 O     c    0.317900 *  0.591500 *  0.462900 *   0.86902    1.000000    
    166 O     c    0.363400 *  0.576900 *  0.467700 *   0.86902    1.000000    
    167 O     c    0.817700 *  0.577100 *  0.468300 *   0.86902    1.000000    
    168 O     c    0.348000 *  0.590900 *  0.238700 *   0.86902    1.000000    
    169 O     c    0.333000 *  0.728500 *  0.376800 *   0.86902    1.000000    
    170 O     c    0.304900 *  0.651600 *  0.409200 *   0.86902    1.000000    
    171 O     c    0.272300 *  0.557900 *  0.333400 *   0.86902    1.000000    
    172 O     c    0.637100 *  0.545400 *  0.764500 *   0.86902    1.000000    
    173 O     c    0.637600 *  0.545600 *  0.690600 *   0.86902    1.000000    
    174 O     c    0.863300 *  0.591000 *  0.462400 *   0.86902    1.000000    
    175 O     c    0.410300 *  0.875800 *  0.348600 *   0.86902    1.000000    
    176 O     c    0.872500 *  0.545200 *  0.636200 *   0.86902    1.000000    
    177 O     c    0.148400 *  0.288900 *  0.590700 *   0.86902    1.000000    
    178 O     c    0.181900 *  0.302200 *  0.557400 *   0.86902    1.000000    
    179 O     c    0.181800 *  0.302900 *  0.623900 *   0.86902    1.000000    
    180 O     c    0.215100 *  0.288600 *  0.590900 *   0.86902    1.000000    
    181 O     c    0.033400 *  0.410000 *  0.710500 *   0.86902    1.000000    
    182 O     c    0.226900 *  0.682100 *  0.627600 *   0.86902    1.000000    
    183 O     c    0.227000 *  0.683000 *  0.553800 *   0.86902    1.000000    
    184 O     c    0.954700 *  0.553600 *  0.318600 *   0.86902    1.000000    
    185 O     c    0.954900 *  0.627800 *  0.319600 *   0.86902    1.000000    
    186 O     c    0.136600 *  0.554100 *  0.682100 *   0.86902    1.000000    
    187 O     c    0.137100 *  0.627700 *  0.680700 *   0.86902    1.000000    
    188 O     c    0.033600 *  0.319900 *  0.257900 *   0.86902    1.000000    
    189 O     c    0.045700 *  0.772800 *  0.644300 *   0.86902    1.000000    
    190 O     c    0.046100 *  0.229200 *  0.718000 *   0.86902    1.000000    
    191 O     c    0.963700 *  0.274100 *  0.635400 *   0.86902    1.000000    
    192 O     c    0.273100 *  0.964300 *  0.545500 *   0.86902    1.000000    
    193 O     c    0.718700 *  0.864700 *  0.772100 *   0.86902    1.000000    
    194 O     c    0.681400 *  0.743400 *  0.852000 *   0.86902    1.000000    
    195 O     c    0.644700 *  0.773700 *  0.863800 *   0.86902    1.000000    
    196 O     c    0.242300 *  0.182100 *  0.286000 *   0.86902    1.000000    
    197 O     c    0.590000 *  0.943100 *  0.348600 *   0.86902    1.000000    
    198 O     c    0.462500 *  0.954700 *  0.409800 *   0.86902    1.000000    
    199 Si    c    0.971900 *  0.528800 *  0.068300 *   4.00000    1.000000    
    200 Si    c    0.882100 *  0.437700 *  0.158200 *   4.00000    1.000000    
    201 Si    c    0.750100 *  0.710300 *  0.153200 *   4.00000    1.000000    
    202 Si    c    0.971700 *  0.437700 *  0.887400 *   4.00000    1.000000    
    203 Si    c    0.159200 *  0.437800 *  0.061300 *   4.00000    1.000000    
    204 Si    c    0.711000 *  0.068900 *  0.971700 *   4.00000    1.000000    
    205 Si    c    0.744400 *  0.114400 *  0.971500 *   4.00000    1.000000    
    206 Si    c    0.801500 *  0.114600 *  0.971400 *   4.00000    1.000000    
    207 Si    c    0.834900 *  0.068900 *  0.971700 *   4.00000    1.000000    
    208 Si    c    0.891700 *  0.069000 *  0.971700 *   4.00000    1.000000    
    209 Si    c    0.841200 *  0.119400 *  0.743800 *   4.00000    1.000000    
    210 Si    c    0.800700 *  0.063000 *  0.840500 *   4.00000    1.000000    
    211 Si    c    0.840900 *  0.119700 *  0.800400 *   4.00000    1.000000    
    212 Si    c    0.840600 *  0.257000 *  0.938000 *   4.00000    1.000000    
    213 Si    c    0.380800 *  0.842000 *  0.881600 *   4.00000    1.000000    
    214 Si    c    0.346000 *  0.068800 *  0.971700 *   4.00000    1.000000    
    215 Si    c    0.380400 *  0.113400 *  0.971400 *   4.00000    1.000000    
    216 Si    c    0.380600 *  0.939100 *  0.159100 *   4.00000    1.000000    
    217 Si    c    0.653200 *  0.795600 *  0.062100 *   4.00000    1.000000    
    218 Si    c    0.710300 *  0.795900 *  0.119300 *   4.00000    1.000000    
    219 Si    c    0.653200 *  0.796200 *  0.119100 *   4.00000    1.000000    
    220 Si    c    0.528800 *  0.938600 *  0.204000 *   4.00000    1.000000    
    221 Si    c    0.471700 *  0.881600 *  0.203300 *   4.00000    1.000000    
    222 Si    c    0.528600 *  0.791500 *  0.750900 *   4.00000    1.000000    
    223 Si    c    0.528700 *  0.848300 *  0.750700 *   4.00000    1.000000    
    224 Si    c    0.710300 *  0.062800 *  0.794500 *   4.00000    1.000000    
    225 O     c    0.136100 *  0.445700 *  0.955500 *   0.86902    1.000000    
    226 O     c    0.833900 *  0.409500 *  0.057300 *   0.86902    1.000000    
    227 O     c    0.878200 *  0.409500 *  0.833400 *   0.86902    1.000000    
    228 O     c    0.966700 *  0.409200 *  0.894500 *   0.86902    1.000000    
    229 O     c    0.728200 *  0.091200 *  0.962700 *   0.86902    1.000000    
    230 O     c    0.773000 *  0.107800 *  0.966700 *   0.86902    1.000000    
    231 O     c    0.817900 *  0.091500 *  0.962900 *   0.86902    1.000000    
    232 O     c    0.863300 *  0.076900 *  0.967700 *   0.86902    1.000000    
    233 O     c    0.317600 *  0.077100 *  0.968300 *   0.86902    1.000000    
    234 O     c    0.848000 *  0.090900 *  0.738700 *   0.86902    1.000000    
    235 O     c    0.833000 *  0.228500 *  0.876800 *   0.86902    1.000000    
    236 O     c    0.804900 *  0.151600 *  0.909200 *   0.86902    1.000000    
    237 O     c    0.772300 *  0.057900 *  0.833400 *   0.86902    1.000000    
    238 O     c    0.137100 *  0.045400 *  0.264500 *   0.86902    1.000000    
    239 O     c    0.137600 *  0.045600 *  0.190600 *   0.86902    1.000000    
    240 O     c    0.363300 *  0.091000 *  0.962400 *   0.86902    1.000000    
    241 O     c    0.910200 *  0.375800 *  0.848600 *   0.86902    1.000000    
    242 O     c    0.372600 *  0.045200 *  0.136200 *   0.86902    1.000000    
    243 O     c    0.648500 *  0.788900 *  0.090700 *   0.86902    1.000000    
    244 O     c    0.681900 *  0.802200 *  0.057400 *   0.86902    1.000000    
    245 O     c    0.681800 *  0.802900 *  0.124000 *   0.86902    1.000000    
    246 O     c    0.715100 *  0.788500 *  0.090900 *   0.86902    1.000000    
    247 O     c    0.533400 *  0.910000 *  0.210500 *   0.86902    1.000000    
    248 O     c    0.726900 *  0.182200 *  0.127600 *   0.86902    1.000000    
    249 O     c    0.727000 *  0.183000 *  0.053800 *   0.86902    1.000000    
    250 O     c    0.454700 *  0.053600 *  0.818600 *   0.86902    1.000000    
    251 O     c    0.454900 *  0.127800 *  0.819600 *   0.86902    1.000000    
    252 O     c    0.636600 *  0.054100 *  0.182100 *   0.86902    1.000000    
    253 O     c    0.637100 *  0.127700 *  0.180700 *   0.86902    1.000000    
    254 O     c    0.533600 *  0.819900 *  0.757900 *   0.86902    1.000000    
    255 O     c    0.545700 *  0.272800 *  0.144300 *   0.86902    1.000000    
    256 O     c    0.546100 *  0.729200 *  0.218000 *   0.86902    1.000000    
    257 O     c    0.463700 *  0.774200 *  0.135400 *   0.86902    1.000000    
    258 O     c    0.773100 *  0.464300 *  0.045500 *   0.86902    1.000000    
    259 O     c    0.218700 *  0.364700 *  0.272100 *   0.86902    1.000000    
    260 O     c    0.181400 *  0.243400 *  0.352000 *   0.86902    1.000000    
    261 O     c    0.144700 *  0.273700 *  0.363800 *   0.86902    1.000000    
    262 O     c    0.742300 *  0.682000 *  0.786000 *   0.86902    1.000000    
    263 O     c    0.090000 *  0.443000 *  0.848600 *   0.86902    1.000000    
    264 O     c    0.962500 *  0.454700 *  0.909800 *   0.86902    1.000000    
    265 Si    c    0.471900 *  0.972300 *  0.431700 *   4.00000    1.000000    
    266 Si    c    0.382100 *  0.063400 *  0.341800 *   4.00000    1.000000    
    267 Si    c    0.250100 *  0.790800 *  0.346800 *   4.00000    1.000000    
    268 Si    c    0.471700 *  0.063400 *  0.612600 *   4.00000    1.000000    
    269 Si    c    0.659200 *  0.063300 *  0.438700 *   4.00000    1.000000    
    270 Si    c    0.211000 *  0.432300 *  0.528300 *   4.00000    1.000000    
    271 Si    c    0.244400 *  0.386700 *  0.528500 *   4.00000    1.000000    
    272 Si    c    0.301500 *  0.386400 *  0.528600 *   4.00000    1.000000    
    273 Si    c    0.334900 *  0.432200 *  0.528300 *   4.00000    1.000000    
    274 Si    c    0.391700 *  0.432100 *  0.528300 *   4.00000    1.000000    
    275 Si    c    0.341200 *  0.381700 *  0.756200 *   4.00000    1.000000    
    276 Si    c    0.300700 *  0.438100 *  0.659500 *   4.00000    1.000000    
    277 Si    c    0.340900 *  0.381400 *  0.699600 *   4.00000    1.000000    
    278 Si    c    0.340600 *  0.244100 *  0.561900 *   4.00000    1.000000    
    279 Si    c    0.880800 *  0.659100 *  0.618400 *   4.00000    1.000000    
    280 Si    c    0.846000 *  0.432300 *  0.528300 *   4.00000    1.000000    
    281 Si    c    0.880400 *  0.387700 *  0.528600 *   4.00000    1.000000    
    282 Si    c    0.880600 *  0.562100 *  0.340800 *   4.00000    1.000000    
    283 Si    c    0.153200 *  0.705500 *  0.437900 *   4.00000    1.000000    
    284 Si    c    0.210300 *  0.705200 *  0.380600 *   4.00000    1.000000    
    285 Si    c    0.153200 *  0.704900 *  0.380900 *   4.00000    1.000000    
    286 Si    c    0.028700 *  0.562500 *  0.296000 *   4.00000    1.000000    
    287 Si    c    0.971700 *  0.619500 *  0.296700 *   4.00000    1.000000    
    288 Si    c    0.028600 *  0.709600 *  0.749100 *   4.00000    1.000000    
    289 Si    c    0.028700 *  0.652700 *  0.749300 *   4.00000    1.000000    
    290 Si    c    0.210300 *  0.438300 *  0.705500 *   4.00000    1.000000    
    291 O     c    0.636100 *  0.055400 *  0.544600 *   0.86902    1.000000    
    292 O     c    0.333900 *  0.091600 *  0.442700 *   0.86902    1.000000    
    293 O     c    0.378200 *  0.091500 *  0.666600 *   0.86902    1.000000    
    294 O     c    0.466700 *  0.091800 *  0.605500 *   0.86902    1.000000    
    295 O     c    0.228200 *  0.409900 *  0.537300 *   0.86902    1.000000    
    296 O     c    0.273000 *  0.393300 *  0.533300 *   0.86902    1.000000    
    297 O     c    0.317900 *  0.409600 *  0.537100 *   0.86902    1.000000    
    298 O     c    0.363400 *  0.424200 *  0.532300 *   0.86902    1.000000    
    299 O     c    0.817700 *  0.423900 *  0.531700 *   0.86902    1.000000    
    300 O     c    0.348000 *  0.410200 *  0.761300 *   0.86902    1.000000    
    301 O     c    0.333000 *  0.272600 *  0.623200 *   0.86902    1.000000    
    302 O     c    0.304900 *  0.349500 *  0.590800 *   0.86902    1.000000    
    303 O     c    0.272300 *  0.443200 *  0.666600 *   0.86902    1.000000    
    304 O     c    0.637100 *  0.455700 *  0.235500 *   0.86902    1.000000    
    305 O     c    0.637600 *  0.455500 *  0.309400 *   0.86902    1.000000    
    306 O     c    0.863300 *  0.410100 *  0.537600 *   0.86902    1.000000    
    307 O     c    0.410200 *  0.125300 *  0.651400 *   0.86902    1.000000    
    308 O     c    0.872600 *  0.455900 *  0.363800 *   0.86902    1.000000    
    309 O     c    0.148400 *  0.712200 *  0.409300 *   0.86902    1.000000    
    310 O     c    0.181900 *  0.698900 *  0.442600 *   0.86902    1.000000    
    311 O     c    0.181800 *  0.698200 *  0.376000 *   0.86902    1.000000    
    312 O     c    0.215100 *  0.712600 *  0.409100 *   0.86902    1.000000    
    313 O     c    0.033400 *  0.591100 *  0.289500 *   0.86902    1.000000    
    314 O     c    0.226900 *  0.319000 *  0.372400 *   0.86902    1.000000    
    315 O     c    0.227000 *  0.318100 *  0.446200 *   0.86902    1.000000    
    316 O     c    0.954700 *  0.447500 *  0.681400 *   0.86902    1.000000    
    317 O     c    0.954900 *  0.373300 *  0.680400 *   0.86902    1.000000    
    318 O     c    0.136600 *  0.447000 *  0.317900 *   0.86902    1.000000    
    319 O     c    0.137100 *  0.373400 *  0.319300 *   0.86902    1.000000    
    320 O     c    0.033600 *  0.681200 *  0.742100 *   0.86902    1.000000    
    321 O     c    0.045700 *  0.228300 *  0.355700 *   0.86902    1.000000    
    322 O     c    0.046100 *  0.771900 *  0.281900 *   0.86902    1.000000    
    323 O     c    0.963700 *  0.727000 *  0.364500 *   0.86902    1.000000    
    324 O     c    0.273100 *  0.036800 *  0.454500 *   0.86902    1.000000    
    325 O     c    0.718700 *  0.136400 *  0.227800 *   0.86902    1.000000    
    326 O     c    0.681400 *  0.257700 *  0.148000 *   0.86902    1.000000    
    327 O     c    0.644800 *  0.227400 *  0.136200 *   0.86902    1.000000    
    328 O     c    0.242200 *  0.819000 *  0.714000 *   0.86902    1.000000    
    329 O     c    0.590000 *  0.058100 *  0.651400 *   0.86902    1.000000    
    330 O     c    0.462500 *  0.046400 *  0.590200 *   0.86902    1.000000    
    331 Si    c    0.971900 *  0.472300 *  0.931700 *   4.00000    1.000000    
    332 Si    c    0.882100 *  0.563400 *  0.841800 *   4.00000    1.000000    
    333 Si    c    0.750100 *  0.290800 *  0.846800 *   4.00000    1.000000    
    334 Si    c    0.971700 *  0.563400 *  0.112700 *   4.00000    1.000000    
    335 Si    c    0.159200 *  0.563300 *  0.938700 *   4.00000    1.000000    
    336 Si    c    0.711000 *  0.932200 *  0.028300 *   4.00000    1.000000    
    337 Si    c    0.744400 *  0.886700 *  0.028500 *   4.00000    1.000000    
    338 Si    c    0.801500 *  0.886400 *  0.028600 *   4.00000    1.000000    
    339 Si    c    0.834900 *  0.932200 *  0.028300 *   4.00000    1.000000    
    340 Si    c    0.891800 *  0.932100 *  0.028300 *   4.00000    1.000000    
    341 Si    c    0.841200 *  0.881700 *  0.256200 *   4.00000    1.000000    
    342 Si    c    0.800700 *  0.938100 *  0.159500 *   4.00000    1.000000    
    343 Si    c    0.840900 *  0.881400 *  0.199500 *   4.00000    1.000000    
    344 Si    c    0.840700 *  0.744100 *  0.061900 *   4.00000    1.000000    
    345 Si    c    0.380800 *  0.159100 *  0.118400 *   4.00000    1.000000    
    346 Si    c    0.346100 *  0.932300 *  0.028300 *   4.00000    1.000000    
    347 Si    c    0.380400 *  0.887700 *  0.028600 *   4.00000    1.000000    
    348 Si    c    0.380600 *  0.062100 *  0.840900 *   4.00000    1.000000    
    349 Si    c    0.653200 *  0.205500 *  0.937900 *   4.00000    1.000000    
    350 Si    c    0.710300 *  0.205200 *  0.880600 *   4.00000    1.000000    
    351 Si    c    0.653200 *  0.204900 *  0.880800 *   4.00000    1.000000    
    352 Si    c    0.528700 *  0.062500 *  0.796000 *   4.00000    1.000000    
    353 Si    c    0.471700 *  0.119500 *  0.796700 *   4.00000    1.000000    
    354 Si    c    0.528600 *  0.209600 *  0.249100 *   4.00000    1.000000    
    355 Si    c    0.528700 *  0.152700 *  0.249300 *   4.00000    1.000000    
    356 Si    c    0.710300 *  0.938300 *  0.205400 *   4.00000    1.000000    
    357 O     c    0.136200 *  0.555400 *  0.044500 *   0.86902    1.000000    
    358 O     c    0.833900 *  0.591600 *  0.942700 *   0.86902    1.000000    
    359 O     c    0.878200 *  0.591600 *  0.166600 *   0.86902    1.000000    
    360 O     c    0.966700 *  0.591900 *  0.105500 *   0.86902    1.000000    
    361 O     c    0.728200 *  0.909900 *  0.037300 *   0.86902    1.000000    
    362 O     c    0.773000 *  0.893300 *  0.033300 *   0.86902    1.000000    
    363 O     c    0.817900 *  0.909600 *  0.037100 *   0.86902    1.000000    
    364 O     c    0.863400 *  0.924200 *  0.032200 *   0.86902    1.000000    
    365 O     c    0.317700 *  0.924000 *  0.031600 *   0.86902    1.000000    
    366 O     c    0.848000 *  0.910200 *  0.261300 *   0.86902    1.000000    
    367 O     c    0.833000 *  0.772600 *  0.123200 *   0.86902    1.000000    
    368 O     c    0.804900 *  0.849500 *  0.090800 *   0.86902    1.000000    
    369 O     c    0.772300 *  0.943200 *  0.166600 *   0.86902    1.000000    
    370 O     c    0.137100 *  0.955700 *  0.735500 *   0.86902    1.000000    
    371 O     c    0.137600 *  0.955500 *  0.809400 *   0.86902    1.000000    
    372 O     c    0.363300 *  0.910100 *  0.037600 *   0.86902    1.000000    
    373 O     c    0.910300 *  0.625300 *  0.151400 *   0.86902    1.000000    
    374 O     c    0.372500 *  0.955900 *  0.863800 *   0.86902    1.000000    
    375 O     c    0.648400 *  0.212200 *  0.909300 *   0.86902    1.000000    
    376 O     c    0.681800 *  0.198900 *  0.942600 *   0.86902    1.000000    
    377 O     c    0.681800 *  0.198200 *  0.876000 *   0.86902    1.000000    
    378 O     c    0.715100 *  0.212500 *  0.909100 *   0.86902    1.000000    
    379 O     c    0.533400 *  0.091100 *  0.789500 *   0.86902    1.000000    
    380 O     c    0.726900 *  0.818900 *  0.872400 *   0.86902    1.000000    
    381 O     c    0.727000 *  0.818100 *  0.946200 *   0.86902    1.000000    
    382 O     c    0.454700 *  0.947500 *  0.181400 *   0.86902    1.000000    
    383 O     c    0.454900 *  0.873300 *  0.180400 *   0.86902    1.000000    
    384 O     c    0.636600 *  0.947000 *  0.817900 *   0.86902    1.000000    
    385 O     c    0.637100 *  0.873400 *  0.819300 *   0.86902    1.000000    
    386 O     c    0.533600 *  0.181200 *  0.242000 *   0.86902    1.000000    
    387 O     c    0.545700 *  0.728300 *  0.855700 *   0.86902    1.000000    
    388 O     c    0.546100 *  0.271900 *  0.781900 *   0.86902    1.000000    
    389 O     c    0.463700 *  0.227000 *  0.864500 *   0.86902    1.000000    
    390 O     c    0.773100 *  0.536800 *  0.954500 *   0.86902    1.000000    
    391 O     c    0.218700 *  0.636300 *  0.727900 *   0.86902    1.000000    
    392 O     c    0.181400 *  0.757700 *  0.648000 *   0.86902    1.000000    
    393 O     c    0.144700 *  0.727400 *  0.636200 *   0.86902    1.000000    
    394 O     c    0.742300 *  0.319000 *  0.214000 *   0.86902    1.000000    
    395 O     c    0.090000 *  0.558100 *  0.151400 *   0.86902    1.000000    
    396 O     c    0.962500 *  0.546400 *  0.090200 *   0.86902    1.000000    
    397 Si    c    0.528600 *  0.028800 *  0.431700 *   4.00000    1.000000    
    398 Si    c    0.618400 *  0.937800 *  0.341800 *   4.00000    1.000000    
    399 Si    c    0.750400 *  0.210300 *  0.346800 *   4.00000    1.000000    
    400 Si    c    0.528800 *  0.937700 *  0.612600 *   4.00000    1.000000    
    401 Si    c    0.341300 *  0.937800 *  0.438700 *   4.00000    1.000000    
    402 Si    c    0.789400 *  0.568900 *  0.528300 *   4.00000    1.000000    
    403 Si    c    0.756100 *  0.614400 *  0.528500 *   4.00000    1.000000    
    404 Si    c    0.698900 *  0.614700 *  0.528600 *   4.00000    1.000000    
    405 Si    c    0.665500 *  0.568900 *  0.528300 *   4.00000    1.000000    
    406 Si    c    0.608700 *  0.569000 *  0.528300 *   4.00000    1.000000    
    407 Si    c    0.659200 *  0.619400 *  0.756300 *   4.00000    1.000000    
    408 Si    c    0.699700 *  0.563000 *  0.659500 *   4.00000    1.000000    
    409 Si    c    0.659600 *  0.619700 *  0.699600 *   4.00000    1.000000    
    410 Si    c    0.659800 *  0.757000 *  0.561900 *   4.00000    1.000000    
    411 Si    c    0.119600 *  0.342100 *  0.618400 *   4.00000    1.000000    
    412 Si    c    0.154400 *  0.568800 *  0.528300 *   4.00000    1.000000    
    413 Si    c    0.120100 *  0.613400 *  0.528600 *   4.00000    1.000000    
    414 Si    c    0.119800 *  0.439000 *  0.340800 *   4.00000    1.000000    
    415 Si    c    0.847200 *  0.295600 *  0.437900 *   4.00000    1.000000    
    416 Si    c    0.790200 *  0.295900 *  0.380600 *   4.00000    1.000000    
    417 Si    c    0.847300 *  0.296200 *  0.380900 *   4.00000    1.000000    
    418 Si    c    0.971800 *  0.438600 *  0.296000 *   4.00000    1.000000    
    419 Si    c    0.028800 *  0.381600 *  0.296700 *   4.00000    1.000000    
    420 Si    c    0.971900 *  0.291500 *  0.749100 *   4.00000    1.000000    
    421 Si    c    0.971800 *  0.348300 *  0.749300 *   4.00000    1.000000    
    422 Si    c    0.790100 *  0.562800 *  0.705500 *   4.00000    1.000000    
    423 O     c    0.364300 *  0.945700 *  0.544600 *   0.86902    1.000000    
    424 O     c    0.666600 *  0.909500 *  0.442700 *   0.86902    1.000000    
    425 O     c    0.622300 *  0.909500 *  0.666700 *   0.86902    1.000000    
    426 O     c    0.533700 *  0.909200 *  0.605500 *   0.86902    1.000000    
    427 O     c    0.772300 *  0.591200 *  0.537300 *   0.86902    1.000000    
    428 O     c    0.727500 *  0.607800 *  0.533300 *   0.86902    1.000000    
    429 O     c    0.682500 *  0.591500 *  0.537100 *   0.86902    1.000000    
    430 O     c    0.637100 *  0.576900 *  0.532300 *   0.86902    1.000000    
    431 O     c    0.182800 *  0.577100 *  0.531700 *   0.86902    1.000000    
    432 O     c    0.652500 *  0.590900 *  0.761300 *   0.86902    1.000000    
    433 O     c    0.667500 *  0.728500 *  0.623200 *   0.86902    1.000000    
    434 O     c    0.695600 *  0.651600 *  0.590800 *   0.86902    1.000000    
    435 O     c    0.728100 *  0.557900 *  0.666600 *   0.86902    1.000000    
    436 O     c    0.363300 *  0.545400 *  0.235500 *   0.86902    1.000000    
    437 O     c    0.362900 *  0.545600 *  0.309400 *   0.86902    1.000000    
    438 O     c    0.137200 *  0.591000 *  0.537600 *   0.86902    1.000000    
    439 O     c    0.590200 *  0.875800 *  0.651400 *   0.86902    1.000000    
    440 O     c    0.127900 *  0.545200 *  0.363800 *   0.86902    1.000000    
    441 O     c    0.852000 *  0.288900 *  0.409300 *   0.86902    1.000000    
    442 O     c    0.818600 *  0.302200 *  0.442600 *   0.86902    1.000000    
    443 O     c    0.818700 *  0.302900 *  0.376000 *   0.86902    1.000000    
    444 O     c    0.785400 *  0.288500 *  0.409100 *   0.86902    1.000000    
    445 O     c    0.967100 *  0.410000 *  0.289500 *   0.86902    1.000000    
    446 O     c    0.773600 *  0.682200 *  0.372400 *   0.86902    1.000000    
    447 O     c    0.773500 *  0.683000 *  0.446200 *   0.86902    1.000000    
    448 O     c    0.045700 *  0.553600 *  0.681400 *   0.86902    1.000000    
    449 O     c    0.045600 *  0.627800 *  0.680400 *   0.86902    1.000000    
    450 O     c    0.863800 *  0.554100 *  0.317900 *   0.86902    1.000000    
    451 O     c    0.863400 *  0.627700 *  0.319300 *   0.86902    1.000000    
    452 O     c    0.966800 *  0.319900 *  0.742000 *   0.86902    1.000000    
    453 O     c    0.954800 *  0.772800 *  0.355700 *   0.86902    1.000000    
    454 O     c    0.954400 *  0.229200 *  0.281900 *   0.86902    1.000000    
    455 O     c    0.036800 *  0.274100 *  0.364500 *   0.86902    1.000000    
    456 O     c    0.727400 *  0.964300 *  0.454500 *   0.86902    1.000000    
    457 O     c    0.281800 *  0.864800 *  0.227900 *   0.86902    1.000000    
    458 O     c    0.319000 *  0.743400 *  0.148000 *   0.86902    1.000000    
    459 O     c    0.355700 *  0.773700 *  0.136200 *   0.86902    1.000000    
    460 O     c    0.758200 *  0.182100 *  0.714000 *   0.86902    1.000000    
    461 O     c    0.410500 *  0.943000 *  0.651400 *   0.86902    1.000000    
    462 O     c    0.538000 *  0.954700 *  0.590200 *   0.86902    1.000000    
    463 Si    c    0.028600 *  0.528800 *  0.931700 *   4.00000    1.000000    
    464 Si    c    0.118400 *  0.437700 *  0.841800 *   4.00000    1.000000    
    465 Si    c    0.250300 *  0.710300 *  0.846800 *   4.00000    1.000000    
    466 Si    c    0.028800 *  0.437700 *  0.112600 *   4.00000    1.000000    
    467 Si    c    0.841300 *  0.437800 *  0.938700 *   4.00000    1.000000    
    468 Si    c    0.289400 *  0.068900 *  0.028300 *   4.00000    1.000000    
    469 Si    c    0.256100 *  0.114400 *  0.028500 *   4.00000    1.000000    
    470 Si    c    0.198900 *  0.114700 *  0.028600 *   4.00000    1.000000    
    471 Si    c    0.165500 *  0.068900 *  0.028300 *   4.00000    1.000000    
    472 Si    c    0.108700 *  0.069000 *  0.028300 *   4.00000    1.000000    
    473 Si    c    0.159200 *  0.119400 *  0.256200 *   4.00000    1.000000    
    474 Si    c    0.199700 *  0.063000 *  0.159500 *   4.00000    1.000000    
    475 Si    c    0.159600 *  0.119700 *  0.199500 *   4.00000    1.000000    
    476 Si    c    0.159800 *  0.257100 *  0.061900 *   4.00000    1.000000    
    477 Si    c    0.619700 *  0.842100 *  0.118400 *   4.00000    1.000000    
    478 Si    c    0.654400 *  0.068800 *  0.028300 *   4.00000    1.000000    
    479 Si    c    0.620100 *  0.113400 *  0.028500 *   4.00000    1.000000    
    480 Si    c    0.619900 *  0.939000 *  0.840900 *   4.00000    1.000000    
    481 Si    c    0.347200 *  0.795600 *  0.937900 *   4.00000    1.000000    
    482 Si    c    0.290200 *  0.795900 *  0.880600 *   4.00000    1.000000    
    483 Si    c    0.347300 *  0.796200 *  0.880900 *   4.00000    1.000000    
    484 Si    c    0.471700 *  0.938600 *  0.796000 *   4.00000    1.000000    
    485 Si    c    0.528800 *  0.881600 *  0.796700 *   4.00000    1.000000    
    486 Si    c    0.471900 *  0.791500 *  0.249100 *   4.00000    1.000000    
    487 Si    c    0.471800 *  0.848400 *  0.249300 *   4.00000    1.000000    
    488 Si    c    0.290200 *  0.062800 *  0.205400 *   4.00000    1.000000    
    489 O     c    0.864300 *  0.445700 *  0.044600 *   0.86902    1.000000    
    490 O     c    0.166600 *  0.409500 *  0.942700 *   0.86902    1.000000    
    491 O     c    0.122300 *  0.409600 *  0.166600 *   0.86902    1.000000    
    492 O     c    0.033700 *  0.409200 *  0.105500 *   0.86902    1.000000    
    493 O     c    0.272300 *  0.091200 *  0.037300 *   0.86902    1.000000    
    494 O     c    0.227500 *  0.107800 *  0.033300 *   0.86902    1.000000    
    495 O     c    0.182500 *  0.091500 *  0.037100 *   0.86902    1.000000    
    496 O     c    0.137100 *  0.076900 *  0.032200 *   0.86902    1.000000    
    497 O     c    0.682800 *  0.077200 *  0.031600 *   0.86902    1.000000    
    498 O     c    0.152500 *  0.090900 *  0.261300 *   0.86902    1.000000    
    499 O     c    0.167500 *  0.228500 *  0.123200 *   0.86902    1.000000    
    500 O     c    0.195600 *  0.151600 *  0.090800 *   0.86902    1.000000    
    501 O     c    0.228100 *  0.057900 *  0.166600 *   0.86902    1.000000    
    502 O     c    0.863300 *  0.045400 *  0.735500 *   0.86902    1.000000    
    503 O     c    0.862900 *  0.045600 *  0.809400 *   0.86902    1.000000    
    504 O     c    0.637200 *  0.091100 *  0.037600 *   0.86902    1.000000    
    505 O     c    0.090200 *  0.375800 *  0.151400 *   0.86902    1.000000    
    506 O     c    0.627900 *  0.045200 *  0.863800 *   0.86902    1.000000    
    507 O     c    0.352000 *  0.788900 *  0.909300 *   0.86902    1.000000    
    508 O     c    0.318600 *  0.802200 *  0.942600 *   0.86902    1.000000    
    509 O     c    0.318700 *  0.802900 *  0.876000 *   0.86902    1.000000    
    510 O     c    0.285300 *  0.788500 *  0.909100 *   0.86902    1.000000    
    511 O     c    0.467100 *  0.910000 *  0.789500 *   0.86902    1.000000    
    512 O     c    0.273600 *  0.182100 *  0.872400 *   0.86902    1.000000    
    513 O     c    0.273500 *  0.183000 *  0.946200 *   0.86902    1.000000    
    514 O     c    0.545700 *  0.053600 *  0.181400 *   0.86902    1.000000    
    515 O     c    0.545600 *  0.127800 *  0.180400 *   0.86902    1.000000    
    516 O     c    0.363800 *  0.054100 *  0.817900 *   0.86902    1.000000    
    517 O     c    0.363400 *  0.127700 *  0.819300 *   0.86902    1.000000    
    518 O     c    0.466800 *  0.819900 *  0.242100 *   0.86902    1.000000    
    519 O     c    0.454800 *  0.272800 *  0.855700 *   0.86902    1.000000    
    520 O     c    0.454400 *  0.729200 *  0.782000 *   0.86902    1.000000    
    521 O     c    0.536800 *  0.774100 *  0.864600 *   0.86902    1.000000    
    522 O     c    0.227400 *  0.464300 *  0.954500 *   0.86902    1.000000    
    523 O     c    0.781800 *  0.364700 *  0.727900 *   0.86902    1.000000    
    524 O     c    0.819000 *  0.243400 *  0.648000 *   0.86902    1.000000    
    525 O     c    0.855700 *  0.273700 *  0.636200 *   0.86902    1.000000    
    526 O     c    0.258200 *  0.682100 *  0.214000 *   0.86902    1.000000    
    527 O     c    0.910500 *  0.443000 *  0.151400 *   0.86902    1.000000    
    528 O     c    0.038000 *  0.454700 *  0.090200 *   0.86902    1.000000    
    529 Si    c    0.568600 *  0.528900 *  0.971800 *   4.00000    1.000000    
    530 Si    c    0.658500 *  0.618800 *  0.062900 *   4.00000    1.000000    
    531 Si    c    0.653400 *  0.750700 *  0.790200 *   4.00000    1.000000    
    532 Si    c    0.387600 *  0.529100 *  0.062900 *   4.00000    1.000000    
    533 Si    c    0.561600 *  0.341600 *  0.062800 *   4.00000    1.000000    
    534 Si    c    0.471900 *  0.789700 *  0.431700 *   4.00000    1.000000    
    535 Si    c    0.471700 *  0.756400 *  0.386100 *   4.00000    1.000000    
    536 Si    c    0.471600 *  0.699300 *  0.385900 *   4.00000    1.000000    
    537 Si    c    0.471900 *  0.665900 *  0.431600 *   4.00000    1.000000    
    538 Si    c    0.471900 *  0.609000 *  0.431600 *   4.00000    1.000000    
    539 Si    c    0.244000 *  0.659500 *  0.381100 *   4.00000    1.000000    
    540 Si    c    0.340800 *  0.700000 *  0.437500 *   4.00000    1.000000    
    541 Si    c    0.300700 *  0.659900 *  0.380900 *   4.00000    1.000000    
    542 Si    c    0.438300 *  0.660200 *  0.243600 *   4.00000    1.000000    
    543 Si    c    0.381800 *  0.120000 *  0.658500 *   4.00000    1.000000    
    544 Si    c    0.471900 *  0.154700 *  0.431700 *   4.00000    1.000000    
    545 Si    c    0.471700 *  0.120400 *  0.387100 *   4.00000    1.000000    
    546 Si    c    0.659300 *  0.120200 *  0.561500 *   4.00000    1.000000    
    547 Si    c    0.562300 *  0.847600 *  0.705000 *   4.00000    1.000000    
    548 Si    c    0.619600 *  0.790400 *  0.704700 *   4.00000    1.000000    
    549 Si    c    0.619400 *  0.847600 *  0.704400 *   4.00000    1.000000    
    550 Si    c    0.704300 *  0.972000 *  0.561900 *   4.00000    1.000000    
    551 Si    c    0.703500 *  0.029100 *  0.618900 *   4.00000    1.000000    
    552 Si    c    0.251200 *  0.972200 *  0.709000 *   4.00000    1.000000    
    553 Si    c    0.251000 *  0.972000 *  0.652200 *   4.00000    1.000000    
    554 Si    c    0.294800 *  0.790400 *  0.437700 *   4.00000    1.000000    
    555 O     c    0.455700 *  0.364600 *  0.054900 *   0.86902    1.000000    
    556 O     c    0.557500 *  0.667000 *  0.091100 *   0.86902    1.000000    
    557 O     c    0.333500 *  0.622600 *  0.091000 *   0.86902    1.000000    
    558 O     c    0.394900 *  0.534100 *  0.091300 *   0.86902    1.000000    
    559 O     c    0.463000 *  0.772600 *  0.409300 *   0.86902    1.000000    
    560 O     c    0.467000 *  0.727800 *  0.392700 *   0.86902    1.000000    
    561 O     c    0.463100 *  0.682900 *  0.409000 *   0.86902    1.000000    
    562 O     c    0.468000 *  0.637500 *  0.423700 *   0.86902    1.000000    
    563 O     c    0.468600 *  0.183100 *  0.423500 *   0.86902    1.000000    
    564 O     c    0.238900 *  0.652700 *  0.409600 *   0.86902    1.000000    
    565 O     c    0.377000 *  0.667800 *  0.272100 *   0.86902    1.000000    
    566 O     c    0.409400 *  0.695900 *  0.349000 *   0.86902    1.000000    
    567 O     c    0.333700 *  0.728500 *  0.442600 *   0.86902    1.000000    
    568 O     c    0.764700 *  0.363600 *  0.455100 *   0.86902    1.000000    
    569 O     c    0.690800 *  0.363200 *  0.455000 *   0.86902    1.000000    
    570 O     c    0.462600 *  0.137500 *  0.409500 *   0.86902    1.000000    
    571 O     c    0.348800 *  0.590500 *  0.124700 *   0.86902    1.000000    
    572 O     c    0.636400 *  0.128300 *  0.455300 *   0.86902    1.000000    
    573 O     c    0.590900 *  0.852400 *  0.711700 *   0.86902    1.000000    
    574 O     c    0.557600 *  0.818900 *  0.698400 *   0.86902    1.000000    
    575 O     c    0.624200 *  0.819000 *  0.697700 *   0.86902    1.000000    
    576 O     c    0.591200 *  0.785600 *  0.712000 *   0.86902    1.000000    
    577 O     c    0.710800 *  0.967300 *  0.590600 *   0.86902    1.000000    
    578 O     c    0.627800 *  0.773900 *  0.318400 *   0.86902    1.000000    
    579 O     c    0.554000 *  0.773800 *  0.317500 *   0.86902    1.000000    
    580 O     c    0.318800 *  0.046100 *  0.446800 *   0.86902    1.000000    
    581 O     c    0.319900 *  0.045900 *  0.372800 *   0.86902    1.000000    
    582 O     c    0.682300 *  0.864200 *  0.446400 *   0.86902    1.000000    
    583 O     c    0.680900 *  0.863700 *  0.372900 *   0.86902    1.000000    
    584 O     c    0.258200 *  0.967100 *  0.680600 *   0.86902    1.000000    
    585 O     c    0.644500 *  0.955100 *  0.227800 *   0.86902    1.000000    
    586 O     c    0.718300 *  0.954700 *  0.771300 *   0.86902    1.000000    
    587 O     c    0.635700 *  0.037200 *  0.726400 *   0.86902    1.000000    
    588 O     c    0.545700 *  0.727700 *  0.036200 *   0.86902    1.000000    
    589 O     c    0.772400 *  0.282100 *  0.135800 *   0.86902    1.000000    
    590 O     c    0.852200 *  0.319300 *  0.257100 *   0.86902    1.000000    
    591 O     c    0.864000 *  0.356100 *  0.226800 *   0.86902    1.000000    
    592 O     c    0.286200 *  0.758600 *  0.818500 *   0.86902    1.000000    
    593 O     c    0.348800 *  0.410800 *  0.057500 *   0.86902    1.000000    
    594 O     c    0.410000 *  0.538300 *  0.045800 *   0.86902    1.000000    
    595 Si    c    0.068600 *  0.028900 *  0.471800 *   4.00000    1.000000    
    596 Si    c    0.158500 *  0.118700 *  0.562800 *   4.00000    1.000000    
    597 Si    c    0.153400 *  0.250700 *  0.290200 *   4.00000    1.000000    
    598 Si    c    0.887600 *  0.029100 *  0.562800 *   4.00000    1.000000    
    599 Si    c    0.061600 *  0.841600 *  0.562700 *   4.00000    1.000000    
    600 Si    c    0.971900 *  0.289700 *  0.931700 *   4.00000    1.000000    
    601 Si    c    0.971700 *  0.256400 *  0.886100 *   4.00000    1.000000    
    602 Si    c    0.971600 *  0.199200 *  0.885900 *   4.00000    1.000000    
    603 Si    c    0.971900 *  0.165900 *  0.931600 *   4.00000    1.000000    
    604 Si    c    0.971900 *  0.109000 *  0.931600 *   4.00000    1.000000    
    605 Si    c    0.744000 *  0.159500 *  0.881100 *   4.00000    1.000000    
    606 Si    c    0.840800 *  0.200000 *  0.937500 *   4.00000    1.000000    
    607 Si    c    0.800700 *  0.159900 *  0.880900 *   4.00000    1.000000    
    608 Si    c    0.938300 *  0.160200 *  0.743600 *   4.00000    1.000000    
    609 Si    c    0.881900 *  0.620000 *  0.158500 *   4.00000    1.000000    
    610 Si    c    0.971900 *  0.654700 *  0.931700 *   4.00000    1.000000    
    611 Si    c    0.971700 *  0.620400 *  0.887100 *   4.00000    1.000000    
    612 Si    c    0.159300 *  0.620200 *  0.061600 *   4.00000    1.000000    
    613 Si    c    0.062300 *  0.347600 *  0.205000 *   4.00000    1.000000    
    614 Si    c    0.119600 *  0.290500 *  0.204700 *   4.00000    1.000000    
    615 Si    c    0.119400 *  0.347600 *  0.204300 *   4.00000    1.000000    
    616 Si    c    0.204300 *  0.472000 *  0.061900 *   4.00000    1.000000    
    617 Si    c    0.203500 *  0.529100 *  0.118900 *   4.00000    1.000000    
    618 Si    c    0.751200 *  0.472200 *  0.209000 *   4.00000    1.000000    
    619 Si    c    0.751000 *  0.472100 *  0.152200 *   4.00000    1.000000    
    620 Si    c    0.794700 *  0.290400 *  0.937700 *   4.00000    1.000000    
    621 O     c    0.955700 *  0.864600 *  0.554900 *   0.86902    1.000000    
    622 O     c    0.057500 *  0.167000 *  0.591100 *   0.86902    1.000000    
    623 O     c    0.833500 *  0.122600 *  0.591000 *   0.86902    1.000000    
    624 O     c    0.894800 *  0.034100 *  0.591300 *   0.86902    1.000000    
    625 O     c    0.962900 *  0.272600 *  0.909300 *   0.86902    1.000000    
    626 O     c    0.967000 *  0.227800 *  0.892700 *   0.86902    1.000000    
    627 O     c    0.963100 *  0.182900 *  0.909000 *   0.86902    1.000000    
    628 O     c    0.968000 *  0.137400 *  0.923700 *   0.86902    1.000000    
    629 O     c    0.968600 *  0.683100 *  0.923500 *   0.86902    1.000000    
    630 O     c    0.738900 *  0.152700 *  0.909600 *   0.86902    1.000000    
    631 O     c    0.877000 *  0.167800 *  0.772100 *   0.86902    1.000000    
    632 O     c    0.909400 *  0.195900 *  0.849000 *   0.86902    1.000000    
    633 O     c    0.833700 *  0.228500 *  0.942600 *   0.86902    1.000000    
    634 O     c    0.264700 *  0.863600 *  0.955100 *   0.86902    1.000000    
    635 O     c    0.190800 *  0.863200 *  0.954900 *   0.86902    1.000000    
    636 O     c    0.962600 *  0.637500 *  0.909500 *   0.86902    1.000000    
    637 O     c    0.848700 *  0.090500 *  0.624700 *   0.86902    1.000000    
    638 O     c    0.136400 *  0.628300 *  0.955300 *   0.86902    1.000000    
    639 O     c    0.090900 *  0.352400 *  0.211600 *   0.86902    1.000000    
    640 O     c    0.057600 *  0.318900 *  0.198400 *   0.86902    1.000000    
    641 O     c    0.124200 *  0.319000 *  0.197700 *   0.86902    1.000000    
    642 O     c    0.091200 *  0.285600 *  0.212000 *   0.86902    1.000000    
    643 O     c    0.210800 *  0.467400 *  0.090600 *   0.86902    1.000000    
    644 O     c    0.127800 *  0.273900 *  0.818400 *   0.86902    1.000000    
    645 O     c    0.054000 *  0.273800 *  0.817500 *   0.86902    1.000000    
    646 O     c    0.818800 *  0.546000 *  0.946900 *   0.86902    1.000000    
    647 O     c    0.819900 *  0.545900 *  0.872900 *   0.86902    1.000000    
    648 O     c    0.182300 *  0.364100 *  0.946400 *   0.86902    1.000000    
    649 O     c    0.180900 *  0.363700 *  0.872900 *   0.86902    1.000000    
    650 O     c    0.758300 *  0.467100 *  0.180600 *   0.86902    1.000000    
    651 O     c    0.144500 *  0.455100 *  0.727800 *   0.86902    1.000000    
    652 O     c    0.218300 *  0.454700 *  0.271300 *   0.86902    1.000000    
    653 O     c    0.135700 *  0.537200 *  0.226400 *   0.86902    1.000000    
    654 O     c    0.045700 *  0.227700 *  0.536200 *   0.86902    1.000000    
    655 O     c    0.272400 *  0.782100 *  0.635800 *   0.86902    1.000000    
    656 O     c    0.352200 *  0.819300 *  0.757100 *   0.86902    1.000000    
    657 O     c    0.364000 *  0.856100 *  0.726800 *   0.86902    1.000000    
    658 O     c    0.786200 *  0.258600 *  0.318500 *   0.86902    1.000000    
    659 O     c    0.848800 *  0.910800 *  0.557600 *   0.86902    1.000000    
    660 O     c    0.910000 *  0.038300 *  0.545800 *   0.86902    1.000000    
    661 Si    c    0.568600 *  0.472200 *  0.028200 *   4.00000    1.000000    
    662 Si    c    0.658500 *  0.382300 *  0.937200 *   4.00000    1.000000    
    663 Si    c    0.653400 *  0.250400 *  0.209800 *   4.00000    1.000000    
    664 Si    c    0.387600 *  0.471900 *  0.937100 *   4.00000    1.000000    
    665 Si    c    0.561600 *  0.659500 *  0.937300 *   4.00000    1.000000    
    666 Si    c    0.471900 *  0.211400 *  0.568300 *   4.00000    1.000000    
    667 Si    c    0.471700 *  0.244700 *  0.613900 *   4.00000    1.000000    
    668 Si    c    0.471600 *  0.301800 *  0.614100 *   4.00000    1.000000    
    669 Si    c    0.471900 *  0.335200 *  0.568400 *   4.00000    1.000000    
    670 Si    c    0.471900 *  0.392100 *  0.568400 *   4.00000    1.000000    
    671 Si    c    0.244000 *  0.341600 *  0.618900 *   4.00000    1.000000    
    672 Si    c    0.340800 *  0.301100 *  0.562500 *   4.00000    1.000000    
    673 Si    c    0.300700 *  0.341200 *  0.619100 *   4.00000    1.000000    
    674 Si    c    0.438300 *  0.340900 *  0.756400 *   4.00000    1.000000    
    675 Si    c    0.381900 *  0.881100 *  0.341500 *   4.00000    1.000000    
    676 Si    c    0.471900 *  0.846400 *  0.568300 *   4.00000    1.000000    
    677 Si    c    0.471700 *  0.880700 *  0.612900 *   4.00000    1.000000    
    678 Si    c    0.659300 *  0.880900 *  0.438500 *   4.00000    1.000000    
    679 Si    c    0.562300 *  0.153500 *  0.295000 *   4.00000    1.000000    
    680 Si    c    0.619600 *  0.210600 *  0.295300 *   4.00000    1.000000    
    681 Si    c    0.619400 *  0.153500 *  0.295700 *   4.00000    1.000000    
    682 Si    c    0.704300 *  0.029100 *  0.438000 *   4.00000    1.000000    
    683 Si    c    0.703500 *  0.972000 *  0.381100 *   4.00000    1.000000    
    684 Si    c    0.251200 *  0.028900 *  0.291000 *   4.00000    1.000000    
    685 Si    c    0.251000 *  0.029100 *  0.347800 *   4.00000    1.000000    
    686 Si    c    0.294800 *  0.210600 *  0.562300 *   4.00000    1.000000    
    687 O     c    0.455700 *  0.636400 *  0.945100 *   0.86902    1.000000    
    688 O     c    0.557500 *  0.334100 *  0.908900 *   0.86902    1.000000    
    689 O     c    0.333500 *  0.378500 *  0.909000 *   0.86902    1.000000    
    690 O     c    0.394800 *  0.467000 *  0.908700 *   0.86902    1.000000    
    691 O     c    0.462900 *  0.228500 *  0.590700 *   0.86902    1.000000    
    692 O     c    0.467000 *  0.273300 *  0.607300 *   0.86902    1.000000    
    693 O     c    0.463100 *  0.318200 *  0.591000 *   0.86902    1.000000    
    694 O     c    0.468000 *  0.363700 *  0.576300 *   0.86902    1.000000    
    695 O     c    0.468600 *  0.818000 *  0.576600 *   0.86902    1.000000    
    696 O     c    0.238900 *  0.348400 *  0.590400 *   0.86902    1.000000    
    697 O     c    0.377000 *  0.333300 *  0.727900 *   0.86902    1.000000    
    698 O     c    0.409400 *  0.305200 *  0.651000 *   0.86902    1.000000    
    699 O     c    0.333700 *  0.272600 *  0.557400 *   0.86902    1.000000    
    700 O     c    0.764700 *  0.637400 *  0.544900 *   0.86902    1.000000    
    701 O     c    0.690800 *  0.637900 *  0.545000 *   0.86902    1.000000    
    702 O     c    0.462600 *  0.863600 *  0.590500 *   0.86902    1.000000    
    703 O     c    0.348700 *  0.410500 *  0.875300 *   0.86902    1.000000    
    704 O     c    0.636400 *  0.872800 *  0.544700 *   0.86902    1.000000    
    705 O     c    0.590900 *  0.148700 *  0.288300 *   0.86902    1.000000    
    706 O     c    0.557600 *  0.182200 *  0.301600 *   0.86902    1.000000    
    707 O     c    0.624200 *  0.182100 *  0.302300 *   0.86902    1.000000    
    708 O     c    0.591200 *  0.215500 *  0.288000 *   0.86902    1.000000    
    709 O     c    0.710800 *  0.033800 *  0.409400 *   0.86902    1.000000    
    710 O     c    0.627800 *  0.227200 *  0.681600 *   0.86902    1.000000    
    711 O     c    0.554000 *  0.227300 *  0.682400 *   0.86902    1.000000    
    712 O     c    0.318800 *  0.955000 *  0.553100 *   0.86902    1.000000    
    713 O     c    0.319900 *  0.955200 *  0.627200 *   0.86902    1.000000    
    714 O     c    0.682300 *  0.136900 *  0.553600 *   0.86902    1.000000    
    715 O     c    0.680900 *  0.137400 *  0.627100 *   0.86902    1.000000    
    716 O     c    0.258300 *  0.034000 *  0.319400 *   0.86902    1.000000    
    717 O     c    0.644500 *  0.046000 *  0.772200 *   0.86902    1.000000    
    718 O     c    0.718300 *  0.046400 *  0.228600 *   0.86902    1.000000    
    719 O     c    0.635700 *  0.963900 *  0.273600 *   0.86902    1.000000    
    720 O     c    0.545700 *  0.273400 *  0.963800 *   0.86902    1.000000    
    721 O     c    0.772400 *  0.719000 *  0.864200 *   0.86902    1.000000    
    722 O     c    0.852200 *  0.681700 *  0.742900 *   0.86902    1.000000    
    723 O     c    0.864000 *  0.645000 *  0.773200 *   0.86902    1.000000    
    724 O     c    0.286200 *  0.242500 *  0.181500 *   0.86902    1.000000    
    725 O     c    0.348800 *  0.590300 *  0.942400 *   0.86902    1.000000    
    726 O     c    0.410000 *  0.462700 *  0.954200 *   0.86902    1.000000    
    727 Si    c    0.068600 *  0.972200 *  0.528200 *   4.00000    1.000000    
    728 Si    c    0.158500 *  0.882300 *  0.437200 *   4.00000    1.000000    
    729 Si    c    0.153400 *  0.750400 *  0.709800 *   4.00000    1.000000    
    730 Si    c    0.887600 *  0.972000 *  0.437100 *   4.00000    1.000000    
    731 Si    c    0.061600 *  0.159500 *  0.437200 *   4.00000    1.000000    
    732 Si    c    0.971900 *  0.711400 *  0.068300 *   4.00000    1.000000    
    733 Si    c    0.971700 *  0.744700 *  0.113900 *   4.00000    1.000000    
    734 Si    c    0.971700 *  0.801900 *  0.114100 *   4.00000    1.000000    
    735 Si    c    0.971900 *  0.835200 *  0.068300 *   4.00000    1.000000    
    736 Si    c    0.972000 *  0.892100 *  0.068400 *   4.00000    1.000000    
    737 Si    c    0.744000 *  0.841600 *  0.118900 *   4.00000    1.000000    
    738 Si    c    0.840800 *  0.801100 *  0.062500 *   4.00000    1.000000    
    739 Si    c    0.800700 *  0.841200 *  0.119100 *   4.00000    1.000000    
    740 Si    c    0.938300 *  0.840900 *  0.256400 *   4.00000    1.000000    
    741 Si    c    0.881900 *  0.381100 *  0.841500 *   4.00000    1.000000    
    742 Si    c    0.971900 *  0.346400 *  0.068300 *   4.00000    1.000000    
    743 Si    c    0.971700 *  0.380700 *  0.112900 *   4.00000    1.000000    
    744 Si    c    0.159300 *  0.380900 *  0.938500 *   4.00000    1.000000    
    745 Si    c    0.062300 *  0.653500 *  0.795000 *   4.00000    1.000000    
    746 Si    c    0.119600 *  0.710600 *  0.795300 *   4.00000    1.000000    
    747 Si    c    0.119400 *  0.653400 *  0.795600 *   4.00000    1.000000    
    748 Si    c    0.204300 *  0.529100 *  0.938100 *   4.00000    1.000000    
    749 Si    c    0.203500 *  0.472000 *  0.881100 *   4.00000    1.000000    
    750 Si    c    0.751200 *  0.528900 *  0.791000 *   4.00000    1.000000    
    751 Si    c    0.751000 *  0.529000 *  0.847800 *   4.00000    1.000000    
    752 Si    c    0.794800 *  0.710700 *  0.062300 *   4.00000    1.000000    
    753 O     c    0.955700 *  0.136500 *  0.445100 *   0.86902    1.000000    
    754 O     c    0.057500 *  0.834100 *  0.408900 *   0.86902    1.000000    
    755 O     c    0.833500 *  0.878500 *  0.409000 *   0.86902    1.000000    
    756 O     c    0.894900 *  0.967000 *  0.408700 *   0.86902    1.000000    
    757 O     c    0.963000 *  0.728500 *  0.090700 *   0.86902    1.000000    
    758 O     c    0.967000 *  0.773300 *  0.107300 *   0.86902    1.000000    
    759 O     c    0.963100 *  0.818200 *  0.091000 *   0.86902    1.000000    
    760 O     c    0.968000 *  0.863600 *  0.076300 *   0.86902    1.000000    
    761 O     c    0.968600 *  0.318000 *  0.076500 *   0.86902    1.000000    
    762 O     c    0.738900 *  0.848400 *  0.090400 *   0.86902    1.000000    
    763 O     c    0.877000 *  0.833300 *  0.227900 *   0.86902    1.000000    
    764 O     c    0.909400 *  0.805300 *  0.151000 *   0.86902    1.000000    
    765 O     c    0.833700 *  0.772600 *  0.057400 *   0.86902    1.000000    
    766 O     c    0.264700 *  0.137400 *  0.044900 *   0.86902    1.000000    
    767 O     c    0.190800 *  0.137900 *  0.045000 *   0.86902    1.000000    
    768 O     c    0.962600 *  0.363600 *  0.090500 *   0.86902    1.000000    
    769 O     c    0.848700 *  0.910600 *  0.375300 *   0.86902    1.000000    
    770 O     c    0.136400 *  0.372800 *  0.044700 *   0.86902    1.000000    
    771 O     c    0.090900 *  0.648700 *  0.788300 *   0.86902    1.000000    
    772 O     c    0.057600 *  0.682200 *  0.801600 *   0.86902    1.000000    
    773 O     c    0.124200 *  0.682100 *  0.802300 *   0.86902    1.000000    
    774 O     c    0.091100 *  0.715400 *  0.788000 *   0.86902    1.000000    
    775 O     c    0.210700 *  0.533700 *  0.909400 *   0.86902    1.000000    
    776 O     c    0.127800 *  0.727200 *  0.181600 *   0.86902    1.000000    
    777 O     c    0.054000 *  0.727300 *  0.182500 *   0.86902    1.000000    
    778 O     c    0.818800 *  0.455000 *  0.053200 *   0.86902    1.000000    
    779 O     c    0.819900 *  0.455200 *  0.127200 *   0.86902    1.000000    
    780 O     c    0.182300 *  0.637000 *  0.053600 *   0.86902    1.000000    
    781 O     c    0.180900 *  0.637400 *  0.127100 *   0.86902    1.000000    
    782 O     c    0.758300 *  0.534000 *  0.819400 *   0.86902    1.000000    
    783 O     c    0.144500 *  0.546000 *  0.272200 *   0.86902    1.000000    
    784 O     c    0.218300 *  0.546400 *  0.728700 *   0.86902    1.000000    
    785 O     c    0.135600 *  0.463900 *  0.773600 *   0.86902    1.000000    
    786 O     c    0.045700 *  0.773400 *  0.463800 *   0.86902    1.000000    
    787 O     c    0.272400 *  0.219000 *  0.364200 *   0.86902    1.000000    
    788 O     c    0.352200 *  0.181700 *  0.242900 *   0.86902    1.000000    
    789 O     c    0.364000 *  0.145000 *  0.273100 *   0.86902    1.000000    
    790 O     c    0.786200 *  0.742500 *  0.681500 *   0.86902    1.000000    
    791 O     c    0.848800 *  0.090300 *  0.442400 *   0.86902    1.000000    
    792 O     c    0.910000 *  0.962800 *  0.454100 *   0.86902    1.000000    
    793 Si    c    0.431800 *  0.472200 *  0.971800 *   4.00000    1.000000    
    794 Si    c    0.342000 *  0.382400 *  0.062800 *   4.00000    1.000000    
    795 Si    c    0.347000 *  0.250400 *  0.790200 *   4.00000    1.000000    
    796 Si    c    0.612900 *  0.472000 *  0.062900 *   4.00000    1.000000    
    797 Si    c    0.438900 *  0.659500 *  0.062800 *   4.00000    1.000000    
    798 Si    c    0.528500 *  0.211400 *  0.431700 *   4.00000    1.000000    
    799 Si    c    0.528800 *  0.244700 *  0.386100 *   4.00000    1.000000    
    800 Si    c    0.528800 *  0.301800 *  0.385900 *   4.00000    1.000000    
    801 Si    c    0.528600 *  0.335200 *  0.431600 *   4.00000    1.000000    
    802 Si    c    0.528500 *  0.392000 *  0.431600 *   4.00000    1.000000    
    803 Si    c    0.756500 *  0.341600 *  0.381100 *   4.00000    1.000000    
    804 Si    c    0.659700 *  0.301100 *  0.437500 *   4.00000    1.000000    
    805 Si    c    0.699800 *  0.341200 *  0.380900 *   4.00000    1.000000    
    806 Si    c    0.562200 *  0.340900 *  0.243600 *   4.00000    1.000000    
    807 Si    c    0.618600 *  0.881100 *  0.658500 *   4.00000    1.000000    
    808 Si    c    0.528600 *  0.846400 *  0.431700 *   4.00000    1.000000    
    809 Si    c    0.528800 *  0.880700 *  0.387100 *   4.00000    1.000000    
    810 Si    c    0.341200 *  0.880900 *  0.561600 *   4.00000    1.000000    
    811 Si    c    0.438100 *  0.153500 *  0.705000 *   4.00000    1.000000    
    812 Si    c    0.380900 *  0.210600 *  0.704700 *   4.00000    1.000000    
    813 Si    c    0.381100 *  0.153500 *  0.704400 *   4.00000    1.000000    
    814 Si    c    0.296200 *  0.029100 *  0.561900 *   4.00000    1.000000    
    815 Si    c    0.296900 *  0.972000 *  0.618900 *   4.00000    1.000000    
    816 Si    c    0.749300 *  0.028900 *  0.709000 *   4.00000    1.000000    
    817 Si    c    0.749500 *  0.029000 *  0.652200 *   4.00000    1.000000    
    818 Si    c    0.705700 *  0.210600 *  0.437700 *   4.00000    1.000000    
    819 O     c    0.544800 *  0.636500 *  0.054900 *   0.86902    1.000000    
    820 O     c    0.443000 *  0.334100 *  0.091100 *   0.86902    1.000000    
    821 O     c    0.667000 *  0.378500 *  0.091000 *   0.86902    1.000000    
    822 O     c    0.605600 *  0.467000 *  0.091300 *   0.86902    1.000000    
    823 O     c    0.537500 *  0.228500 *  0.409300 *   0.86902    1.000000    
    824 O     c    0.533500 *  0.273300 *  0.392700 *   0.86902    1.000000    
    825 O     c    0.537400 *  0.318200 *  0.409000 *   0.86902    1.000000    
    826 O     c    0.532500 *  0.363600 *  0.423700 *   0.86902    1.000000    
    827 O     c    0.531900 *  0.818000 *  0.423500 *   0.86902    1.000000    
    828 O     c    0.761500 *  0.348400 *  0.409600 *   0.86902    1.000000    
    829 O     c    0.623400 *  0.333300 *  0.272100 *   0.86902    1.000000    
    830 O     c    0.591000 *  0.305200 *  0.349000 *   0.86902    1.000000    
    831 O     c    0.666800 *  0.272600 *  0.442600 *   0.86902    1.000000    
    832 O     c    0.235700 *  0.637500 *  0.455100 *   0.86902    1.000000    
    833 O     c    0.309700 *  0.637900 *  0.455000 *   0.86902    1.000000    
    834 O     c    0.537900 *  0.863600 *  0.409500 *   0.86902    1.000000    
    835 O     c    0.651700 *  0.410600 *  0.124700 *   0.86902    1.000000    
    836 O     c    0.364000 *  0.872800 *  0.455300 *   0.86902    1.000000    
    837 O     c    0.409500 *  0.148700 *  0.711700 *   0.86902    1.000000    
    838 O     c    0.442800 *  0.182200 *  0.698400 *   0.86902    1.000000    
    839 O     c    0.376300 *  0.182100 *  0.697700 *   0.86902    1.000000    
    840 O     c    0.409300 *  0.215500 *  0.712000 *   0.86902    1.000000    
    841 O     c    0.289700 *  0.033700 *  0.590600 *   0.86902    1.000000    
    842 O     c    0.372600 *  0.227200 *  0.318400 *   0.86902    1.000000    
    843 O     c    0.446400 *  0.227300 *  0.317500 *   0.86902    1.000000    
    844 O     c    0.681600 *  0.955000 *  0.446800 *   0.86902    1.000000    
    845 O     c    0.680600 *  0.955200 *  0.372800 *   0.86902    1.000000    
    846 O     c    0.318100 *  0.136900 *  0.446400 *   0.86902    1.000000    
    847 O     c    0.319600 *  0.137400 *  0.372900 *   0.86902    1.000000    
    848 O     c    0.742200 *  0.034000 *  0.680600 *   0.86902    1.000000    
    849 O     c    0.356000 *  0.046000 *  0.227800 *   0.86902    1.000000    
    850 O     c    0.282200 *  0.046400 *  0.771300 *   0.86902    1.000000    
    851 O     c    0.364800 *  0.963900 *  0.726400 *   0.86902    1.000000    
    852 O     c    0.454700 *  0.273400 *  0.036200 *   0.86902    1.000000    
    853 O     c    0.228100 *  0.719000 *  0.135800 *   0.86902    1.000000    
    854 O     c    0.148200 *  0.681800 *  0.257100 *   0.86902    1.000000    
    855 O     c    0.136500 *  0.645000 *  0.226800 *   0.86902    1.000000    
    856 O     c    0.714200 *  0.242500 *  0.818500 *   0.86902    1.000000    
    857 O     c    0.651700 *  0.590300 *  0.057600 *   0.86902    1.000000    
    858 O     c    0.590500 *  0.462800 *  0.045800 *   0.86902    1.000000    
    859 Si    c    0.931900 *  0.972200 *  0.471800 *   4.00000    1.000000    
    860 Si    c    0.842000 *  0.882300 *  0.562800 *   4.00000    1.000000    
    861 Si    c    0.847000 *  0.750400 *  0.290200 *   4.00000    1.000000    
    862 Si    c    0.112900 *  0.971900 *  0.562800 *   4.00000    1.000000    
    863 Si    c    0.938900 *  0.159500 *  0.562700 *   4.00000    1.000000    
    864 Si    c    0.028500 *  0.711400 *  0.931700 *   4.00000    1.000000    
    865 Si    c    0.028800 *  0.744600 *  0.886100 *   4.00000    1.000000    
    866 Si    c    0.028800 *  0.801800 *  0.885900 *   4.00000    1.000000    
    867 Si    c    0.028600 *  0.835200 *  0.931600 *   4.00000    1.000000    
    868 Si    c    0.028500 *  0.892000 *  0.931600 *   4.00000    1.000000    
    869 Si    c    0.256500 *  0.841600 *  0.881100 *   4.00000    1.000000    
    870 Si    c    0.159700 *  0.801100 *  0.937500 *   4.00000    1.000000    
    871 Si    c    0.199800 *  0.841200 *  0.880900 *   4.00000    1.000000    
    872 Si    c    0.062200 *  0.840900 *  0.743600 *   4.00000    1.000000    
    873 Si    c    0.118600 *  0.381100 *  0.158500 *   4.00000    1.000000    
    874 Si    c    0.028600 *  0.346400 *  0.931700 *   4.00000    1.000000    
    875 Si    c    0.028800 *  0.380700 *  0.887100 *   4.00000    1.000000    
    876 Si    c    0.841200 *  0.380900 *  0.061600 *   4.00000    1.000000    
    877 Si    c    0.938200 *  0.653500 *  0.205000 *   4.00000    1.000000    
    878 Si    c    0.880900 *  0.710600 *  0.204700 *   4.00000    1.000000    
    879 Si    c    0.881100 *  0.653500 *  0.204300 *   4.00000    1.000000    
    880 Si    c    0.796200 *  0.529100 *  0.061900 *   4.00000    1.000000    
    881 Si    c    0.797000 *  0.472000 *  0.118900 *   4.00000    1.000000    
    882 Si    c    0.249300 *  0.528900 *  0.209000 *   4.00000    1.000000    
    883 Si    c    0.249500 *  0.529100 *  0.152200 *   4.00000    1.000000    
    884 Si    c    0.205700 *  0.710600 *  0.937700 *   4.00000    1.000000    
    885 O     c    0.044800 *  0.136500 *  0.554900 *   0.86902    1.000000    
    886 O     c    0.943000 *  0.834100 *  0.591100 *   0.86902    1.000000    
    887 O     c    0.167000 *  0.878500 *  0.591000 *   0.86902    1.000000    
    888 O     c    0.105600 *  0.967000 *  0.591300 *   0.86902    1.000000    
    889 O     c    0.037500 *  0.728500 *  0.909300 *   0.86902    1.000000    
    890 O     c    0.033500 *  0.773300 *  0.892700 *   0.86902    1.000000    
    891 O     c    0.037400 *  0.818200 *  0.909000 *   0.86902    1.000000    
    892 O     c    0.032500 *  0.863600 *  0.923700 *   0.86902    1.000000    
    893 O     c    0.031900 *  0.318000 *  0.923500 *   0.86902    1.000000    
    894 O     c    0.261500 *  0.848400 *  0.909600 *   0.86902    1.000000    
    895 O     c    0.123400 *  0.833300 *  0.772100 *   0.86902    1.000000    
    896 O     c    0.091000 *  0.805200 *  0.849000 *   0.86902    1.000000    
    897 O     c    0.166800 *  0.772600 *  0.942600 *   0.86902    1.000000    
    898 O     c    0.735700 *  0.137400 *  0.955100 *   0.86902    1.000000    
    899 O     c    0.809600 *  0.137900 *  0.954900 *   0.86902    1.000000    
    900 O     c    0.037800 *  0.363600 *  0.909500 *   0.86902    1.000000    
    901 O     c    0.151700 *  0.910500 *  0.624700 *   0.86902    1.000000    
    902 O     c    0.864000 *  0.372800 *  0.955300 *   0.86902    1.000000    
    903 O     c    0.909600 *  0.648700 *  0.211600 *   0.86902    1.000000    
    904 O     c    0.942800 *  0.682200 *  0.198400 *   0.86902    1.000000    
    905 O     c    0.876300 *  0.682100 *  0.197700 *   0.86902    1.000000    
    906 O     c    0.909300 *  0.715500 *  0.212000 *   0.86902    1.000000    
    907 O     c    0.789700 *  0.533700 *  0.090600 *   0.86902    1.000000    
    908 O     c    0.872600 *  0.727200 *  0.818400 *   0.86902    1.000000    
    909 O     c    0.946400 *  0.727200 *  0.817500 *   0.86902    1.000000    
    910 O     c    0.181600 *  0.455000 *  0.946800 *   0.86902    1.000000    
    911 O     c    0.180600 *  0.455200 *  0.872800 *   0.86902    1.000000    
    912 O     c    0.818100 *  0.636900 *  0.946400 *   0.86902    1.000000    
    913 O     c    0.819600 *  0.637400 *  0.872900 *   0.86902    1.000000    
    914 O     c    0.242200 *  0.534000 *  0.180600 *   0.86902    1.000000    
    915 O     c    0.856000 *  0.546000 *  0.727800 *   0.86902    1.000000    
    916 O     c    0.782200 *  0.546400 *  0.271300 *   0.86902    1.000000    
    917 O     c    0.864800 *  0.463900 *  0.226400 *   0.86902    1.000000    
    918 O     c    0.954700 *  0.773400 *  0.536200 *   0.86902    1.000000    
    919 O     c    0.728100 *  0.219000 *  0.635800 *   0.86902    1.000000    
    920 O     c    0.648200 *  0.181700 *  0.757100 *   0.86902    1.000000    
    921 O     c    0.636400 *  0.145000 *  0.726800 *   0.86902    1.000000    
    922 O     c    0.214200 *  0.742500 *  0.318500 *   0.86902    1.000000    
    923 O     c    0.151700 *  0.090300 *  0.557600 *   0.86902    1.000000    
    924 O     c    0.090500 *  0.962700 *  0.545800 *   0.86902    1.000000    
    925 Si    c    0.431900 *  0.528900 *  0.028200 *   4.00000    1.000000    
    926 Si    c    0.341900 *  0.618700 *  0.937200 *   4.00000    1.000000    
    927 Si    c    0.347100 *  0.750700 *  0.209800 *   4.00000    1.000000    
    928 Si    c    0.612800 *  0.529100 *  0.937100 *   4.00000    1.000000    
    929 Si    c    0.438900 *  0.341600 *  0.937300 *   4.00000    1.000000    
    930 Si    c    0.528500 *  0.789700 *  0.568300 *   4.00000    1.000000    
    931 Si    c    0.528800 *  0.756400 *  0.613900 *   4.00000    1.000000    
    932 Si    c    0.528800 *  0.699200 *  0.614100 *   4.00000    1.000000    
    933 Si    c    0.528600 *  0.665900 *  0.568400 *   4.00000    1.000000    
    934 Si    c    0.528500 *  0.609000 *  0.568400 *   4.00000    1.000000    
    935 Si    c    0.756500 *  0.659500 *  0.618900 *   4.00000    1.000000    
    936 Si    c    0.659700 *  0.700000 *  0.562500 *   4.00000    1.000000    
    937 Si    c    0.699800 *  0.659900 *  0.619100 *   4.00000    1.000000    
    938 Si    c    0.562200 *  0.660200 *  0.756400 *   4.00000    1.000000    
    939 Si    c    0.618600 *  0.120000 *  0.341500 *   4.00000    1.000000    
    940 Si    c    0.528500 *  0.154700 *  0.568300 *   4.00000    1.000000    
    941 Si    c    0.528800 *  0.120400 *  0.612900 *   4.00000    1.000000    
    942 Si    c    0.341100 *  0.120200 *  0.438400 *   4.00000    1.000000    
    943 Si    c    0.438200 *  0.847600 *  0.295000 *   4.00000    1.000000    
    944 Si    c    0.380900 *  0.790500 *  0.295300 *   4.00000    1.000000    
    945 Si    c    0.381100 *  0.847600 *  0.295700 *   4.00000    1.000000    
    946 Si    c    0.296200 *  0.972000 *  0.438100 *   4.00000    1.000000    
    947 Si    c    0.296900 *  0.029100 *  0.381100 *   4.00000    1.000000    
    948 Si    c    0.749300 *  0.972200 *  0.291000 *   4.00000    1.000000    
    949 Si    c    0.749500 *  0.972000 *  0.347800 *   4.00000    1.000000    
    950 Si    c    0.705700 *  0.790400 *  0.562300 *   4.00000    1.000000    
    951 O     c    0.544800 *  0.364600 *  0.945100 *   0.86902    1.000000    
    952 O     c    0.443000 *  0.667000 *  0.908900 *   0.86902    1.000000    
    953 O     c    0.667000 *  0.622600 *  0.909000 *   0.86902    1.000000    
    954 O     c    0.605600 *  0.534100 *  0.908700 *   0.86902    1.000000    
    955 O     c    0.537500 *  0.772600 *  0.590700 *   0.86902    1.000000    
    956 O     c    0.533500 *  0.727800 *  0.607300 *   0.86902    1.000000    
    957 O     c    0.537400 *  0.682900 *  0.591000 *   0.86902    1.000000    
    958 O     c    0.532500 *  0.637400 *  0.576300 *   0.86902    1.000000    
    959 O     c    0.531900 *  0.183100 *  0.576500 *   0.86902    1.000000    
    960 O     c    0.761500 *  0.652700 *  0.590400 *   0.86902    1.000000    
    961 O     c    0.623400 *  0.667800 *  0.727900 *   0.86902    1.000000    
    962 O     c    0.591000 *  0.695800 *  0.651000 *   0.86902    1.000000    
    963 O     c    0.666800 *  0.728500 *  0.557400 *   0.86902    1.000000    
    964 O     c    0.235700 *  0.363700 *  0.544900 *   0.86902    1.000000    
    965 O     c    0.309700 *  0.363200 *  0.545000 *   0.86902    1.000000    
    966 O     c    0.537800 *  0.137500 *  0.590500 *   0.86902    1.000000    
    967 O     c    0.651700 *  0.590500 *  0.875300 *   0.86902    1.000000    
    968 O     c    0.364000 *  0.128300 *  0.544700 *   0.86902    1.000000    
[...]
  13026 O     s    0.381500 *  0.500500 *  0.058100 *  -2.86902    1.000000    
  13027 O     s    0.938700 *  0.000400 *  0.465900 *  -2.86902    1.000000    
  13028 O     s    0.881500 *  0.000500 *  0.558100 *  -2.86902    1.000000    
  13029 O     s    0.438700 *  0.500700 *  0.034100 *  -2.86902    1.000000    
  13030 O     s    0.381500 *  0.500600 *  0.941900 *  -2.86902    1.000000    
  13031 O     s    0.938700 *  0.000700 *  0.534100 *  -2.86902    1.000000    
  13032 O     s    0.881500 *  0.000600 *  0.441900 *  -2.86902    1.000000    
  13033 O     s    0.561700 *  0.500600 *  0.965900 *  -2.86902    1.000000    
  13034 O     s    0.619000 *  0.500600 *  0.058100 *  -2.86902    1.000000    
  13035 O     s    0.061700 *  0.000700 *  0.465900 *  -2.86902    1.000000    
  13036 O     s    0.119000 *  0.000600 *  0.558100 *  -2.86902    1.000000    
  13037 O     s    0.561700 *  0.500400 *  0.034100 *  -2.86902    1.000000    
  13038 O     s    0.619000 *  0.500400 *  0.941900 *  -2.86902    1.000000    
  13039 O     s    0.061700 *  0.000400 *  0.534100 *  -2.86902    1.000000    
  13040 O     s    0.119000 *  0.000500 *  0.441900 *  -2.86902    1.000000    
  13041 O     s    0.966100 *  0.439100 *  0.499900 *  -2.86902    1.000000    
  13042 O     s    0.058300 *  0.381700 *  0.499900 *  -2.86902    1.000000    
  13043 O     s    0.466100 *  0.939200 *  0.999900 *  -2.86902    1.000000    
  13044 O     s    0.558300 *  0.881700 *  0.999900 *  -2.86902    1.000000    
  13045 O     s    0.034300 *  0.439200 *  0.500100 *  -2.86902    1.000000    
  13046 O     s    0.942200 *  0.381700 *  0.500100 *  -2.86902    1.000000    
  13047 O     s    0.534400 *  0.939200 *  0.000100 *  -2.86902    1.000000    
  13048 O     s    0.442200 *  0.881800 *  0.000100 *  -2.86902    1.000000    
  13049 O     s    0.966100 *  0.561900 *  0.500100 *  -2.86902    1.000000    
  13050 O     s    0.058300 *  0.619300 *  0.500100 *  -2.86902    1.000000    
  13051 O     s    0.466100 *  0.061900 *  0.000100 *  -2.86902    1.000000    
  13052 O     s    0.558300 *  0.119400 *  0.000100 *  -2.86902    1.000000    
  13053 O     s    0.034300 *  0.561900 *  0.499900 *  -2.86902    1.000000    
  13054 O     s    0.942200 *  0.619300 *  0.499900 *  -2.86902    1.000000    
  13055 O     s    0.534300 *  0.061900 *  0.999900 *  -2.86902    1.000000    
  13056 O     s    0.442100 *  0.119300 *  0.999900 *  -2.86902    1.000000    
  13057 O     s    0.966100 *  0.500600 *  0.561500 *  -2.86902    1.000000    
  13058 O     s    0.058300 *  0.500600 *  0.618700 *  -2.86902    1.000000    
  13059 O     s    0.466100 *  0.000700 *  0.061400 *  -2.86902    1.000000    
  13060 O     s    0.558300 *  0.000700 *  0.118700 *  -2.86902    1.000000    
  13061 O     s    0.034300 *  0.500400 *  0.561500 *  -2.86902    1.000000    
  13062 O     s    0.942200 *  0.500500 *  0.618700 *  -2.86902    1.000000    
  13063 O     s    0.534400 *  0.000500 *  0.061400 *  -2.86902    1.000000    
  13064 O     s    0.442200 *  0.000500 *  0.118700 *  -2.86902    1.000000    
  13065 O     s    0.966100 *  0.500400 *  0.438500 *  -2.86902    1.000000    
  13066 O     s    0.058300 *  0.500500 *  0.381300 *  -2.86902    1.000000    
  13067 O     s    0.466100 *  0.000400 *  0.938500 *  -2.86902    1.000000    
  13068 O     s    0.558300 *  0.000500 *  0.881200 *  -2.86902    1.000000    
  13069 O     s    0.034300 *  0.500700 *  0.438500 *  -2.86902    1.000000    
  13070 O     s    0.942200 *  0.500600 *  0.381300 *  -2.86902    1.000000    
  13071 O     s    0.534300 *  0.000700 *  0.938500 *  -2.86902    1.000000    
  13072 O     s    0.442100 *  0.000600 *  0.881200 *  -2.86902    1.000000    
  13073 O     s    0.500300 *  0.439200 *  0.034100 *  -2.86902    1.000000    
  13074 O     s    0.500300 *  0.381700 *  0.941900 *  -2.86902    1.000000    
  13075 O     s    0.000300 *  0.939200 *  0.534100 *  -2.86902    1.000000    
  13076 O     s    0.000300 *  0.881800 *  0.441900 *  -2.86902    1.000000    
  13077 O     s    0.500100 *  0.439200 *  0.965900 *  -2.86902    1.000000    
  13078 O     s    0.500200 *  0.381800 *  0.058100 *  -2.86902    1.000000    
  13079 O     s    0.000100 *  0.939200 *  0.465900 *  -2.86902    1.000000    
  13080 O     s    0.000200 *  0.881800 *  0.558100 *  -2.86902    1.000000    
  13081 O     s    0.500100 *  0.561900 *  0.034100 *  -2.86902    1.000000    
  13082 O     s    0.500100 *  0.619300 *  0.941900 *  -2.86902    1.000000    
  13083 O     s    0.000100 *  0.061900 *  0.534100 *  -2.86902    1.000000    
  13084 O     s    0.000200 *  0.119300 *  0.441900 *  -2.86902    1.000000    
  13085 O     s    0.500300 *  0.561900 *  0.965900 *  -2.86902    1.000000    
  13086 O     s    0.500300 *  0.619300 *  0.058100 *  -2.86902    1.000000    
  13087 O     s    0.000300 *  0.061900 *  0.465900 *  -2.86902    1.000000    
  13088 O     s    0.000300 *  0.119300 *  0.558100 *  -2.86902    1.000000    
  13089 O     s    0.438900 *  0.966400 *  0.499900 *  -2.86902    1.000000    
  13090 O     s    0.381400 *  0.058600 *  0.499900 *  -2.86902    1.000000    
  13091 O     s    0.938900 *  0.466400 *  0.999900 *  -2.86902    1.000000    
  13092 O     s    0.881400 *  0.558500 *  0.999900 *  -2.86902    1.000000    
  13093 O     s    0.438900 *  0.034700 *  0.500100 *  -2.86902    1.000000    
  13094 O     s    0.381400 *  0.942500 *  0.500100 *  -2.86902    1.000000    
  13095 O     s    0.938900 *  0.534700 *  0.000100 *  -2.86902    1.000000    
  13096 O     s    0.881400 *  0.442500 *  0.000100 *  -2.86902    1.000000    
  13097 O     s    0.561600 *  0.966400 *  0.500100 *  -2.86902    1.000000    
  13098 O     s    0.619000 *  0.058600 *  0.500100 *  -2.86902    1.000000    
  13099 O     s    0.061600 *  0.466400 *  0.000100 *  -2.86902    1.000000    
  13100 O     s    0.119000 *  0.558600 *  0.000100 *  -2.86902    1.000000    
  13101 O     s    0.561600 *  0.034700 *  0.499900 *  -2.86902    1.000000    
  13102 O     s    0.619000 *  0.942500 *  0.499900 *  -2.86902    1.000000    
  13103 O     s    0.061600 *  0.534700 *  0.999900 *  -2.86902    1.000000    
  13104 O     s    0.119000 *  0.442500 *  0.999900 *  -2.86902    1.000000    
  13105 O     s    0.544200 *  0.034700 *  0.456000 *  -2.86902    1.000000    
  13106 O     s    0.366500 *  0.057000 *  0.633700 *  -2.86902    1.000000    
  13107 O     s    0.044200 *  0.534700 *  0.956000 *  -2.86902    1.000000    
  13108 O     s    0.866600 *  0.557100 *  0.133700 *  -2.86902    1.000000    
  13109 O     s    0.456300 *  0.966400 *  0.456000 *  -2.86902    1.000000    
  13110 O     s    0.633900 *  0.944000 *  0.633700 *  -2.86902    1.000000    
  13111 O     s    0.956300 *  0.466400 *  0.956000 *  -2.86902    1.000000    
  13112 O     s    0.133900 *  0.444100 *  0.133700 *  -2.86902    1.000000    
  13113 O     s    0.456300 *  0.034700 *  0.544000 *  -2.86902    1.000000    
  13114 O     s    0.633900 *  0.057000 *  0.366300 *  -2.86902    1.000000    
  13115 O     s    0.956300 *  0.534700 *  0.044000 *  -2.86902    1.000000    
  13116 O     s    0.133900 *  0.557000 *  0.866300 *  -2.86902    1.000000    
  13117 O     s    0.544200 *  0.966400 *  0.544000 *  -2.86902    1.000000    
  13118 O     s    0.366600 *  0.944100 *  0.366300 *  -2.86902    1.000000    
  13119 O     s    0.044200 *  0.466400 *  0.044000 *  -2.86902    1.000000    
  13120 O     s    0.866600 *  0.444100 *  0.866300 *  -2.86902    1.000000    
  13121 O     s    0.456300 *  0.544500 *  0.034100 *  -2.86902    1.000000    
  13122 O     s    0.634000 *  0.366900 *  0.056600 *  -2.86902    1.000000    
  13123 O     s    0.956200 *  0.044500 *  0.534100 *  -2.86902    1.000000    
  13124 O     s    0.134000 *  0.866900 *  0.556600 *  -2.86902    1.000000    
  13125 O     s    0.456200 *  0.456600 *  0.965900 *  -2.86902    1.000000    
  13126 O     s    0.633900 *  0.634200 *  0.943400 *  -2.86902    1.000000    
  13127 O     s    0.956200 *  0.956600 *  0.465900 *  -2.86902    1.000000    
  13128 O     s    0.134000 *  0.134200 *  0.443400 *  -2.86902    1.000000    
  13129 O     s    0.544200 *  0.456600 *  0.034100 *  -2.86902    1.000000    
  13130 O     s    0.366500 *  0.634200 *  0.056600 *  -2.86902    1.000000    
  13131 O     s    0.044200 *  0.956600 *  0.534100 *  -2.86902    1.000000    
  13132 O     s    0.866500 *  0.134200 *  0.556600 *  -2.86902    1.000000    
  13133 O     s    0.544200 *  0.544500 *  0.965900 *  -2.86902    1.000000    
  13134 O     s    0.366500 *  0.366900 *  0.943400 *  -2.86902    1.000000    
  13135 O     s    0.044200 *  0.044500 *  0.465900 *  -2.86902    1.000000    
  13136 O     s    0.866500 *  0.866900 *  0.443400 *  -2.86902    1.000000    
  13137 O     s    0.034300 *  0.456600 *  0.544000 *  -2.86902    1.000000    
  13138 O     s    0.056800 *  0.634200 *  0.366300 *  -2.86902    1.000000    
  13139 O     s    0.534400 *  0.956600 *  0.044000 *  -2.86902    1.000000    
  13140 O     s    0.556800 *  0.134200 *  0.866300 *  -2.86902    1.000000    
  13141 O     s    0.966100 *  0.456600 *  0.456000 *  -2.86902    1.000000    
  13142 O     s    0.943700 *  0.634200 *  0.633700 *  -2.86902    1.000000    
  13143 O     s    0.466100 *  0.956600 *  0.956000 *  -2.86902    1.000000    
  13144 O     s    0.443700 *  0.134200 *  0.133700 *  -2.86902    1.000000    
  13145 O     s    0.034300 *  0.544500 *  0.456000 *  -2.86902    1.000000    
  13146 O     s    0.056800 *  0.366900 *  0.633700 *  -2.86902    1.000000    
  13147 O     s    0.534300 *  0.044500 *  0.956000 *  -2.86902    1.000000    
  13148 O     s    0.556800 *  0.866900 *  0.133700 *  -2.86902    1.000000    
  13149 O     s    0.966100 *  0.544500 *  0.544000 *  -2.86902    1.000000    
  13150 O     s    0.943700 *  0.366900 *  0.366300 *  -2.86902    1.000000    
  13151 O     s    0.466100 *  0.044500 *  0.044000 *  -2.86902    1.000000    
  13152 O     s    0.443700 *  0.866900 *  0.866300 *  -2.86902    1.000000    
  13153 O     s    0.034300 *  0.544200 *  0.543600 *  -2.86902    1.000000    
  13154 O     s    0.056700 *  0.366600 *  0.366000 *  -2.86902    1.000000    
  13155 O     s    0.534300 *  0.044200 *  0.043600 *  -2.86902    1.000000    
  13156 O     s    0.556700 *  0.866600 *  0.866000 *  -2.86902    1.000000    
  13157 O     s    0.966200 *  0.456900 *  0.543600 *  -2.86902    1.000000    
  13158 O     s    0.943700 *  0.634500 *  0.366000 *  -2.86902    1.000000    
  13159 O     s    0.466200 *  0.956900 *  0.043600 *  -2.86902    1.000000    
  13160 O     s    0.443700 *  0.134500 *  0.866000 *  -2.86902    1.000000    
  13161 O     s    0.034300 *  0.456900 *  0.456300 *  -2.86902    1.000000    
  13162 O     s    0.056700 *  0.634500 *  0.634000 *  -2.86902    1.000000    
  13163 O     s    0.534300 *  0.956900 *  0.956400 *  -2.86902    1.000000    
  13164 O     s    0.556800 *  0.134500 *  0.133900 *  -2.86902    1.000000    
  13165 O     s    0.966200 *  0.544200 *  0.456300 *  -2.86902    1.000000    
  13166 O     s    0.943700 *  0.366600 *  0.634000 *  -2.86902    1.000000    
  13167 O     s    0.466100 *  0.044200 *  0.956300 *  -2.86902    1.000000    
  13168 O     s    0.443700 *  0.866600 *  0.133900 *  -2.86902    1.000000    
  13169 O     s    0.543900 *  0.456900 *  0.965900 *  -2.86902    1.000000    
  13170 O     s    0.366200 *  0.634500 *  0.943500 *  -2.86902    1.000000    
  13171 O     s    0.043900 *  0.956900 *  0.465900 *  -2.86902    1.000000    
  13172 O     s    0.866200 *  0.134500 *  0.443500 *  -2.86902    1.000000    
  13173 O     s    0.456600 *  0.456900 *  0.034100 *  -2.86902    1.000000    
  13174 O     s    0.634200 *  0.634500 *  0.056500 *  -2.86902    1.000000    
  13175 O     s    0.956600 *  0.956900 *  0.534100 *  -2.86902    1.000000    
  13176 O     s    0.134200 *  0.134500 *  0.556500 *  -2.86902    1.000000    
  13177 O     s    0.456600 *  0.544200 *  0.965900 *  -2.86902    1.000000    
  13178 O     s    0.634200 *  0.366600 *  0.943500 *  -2.86902    1.000000    
  13179 O     s    0.956600 *  0.044200 *  0.465900 *  -2.86902    1.000000    
  13180 O     s    0.134200 *  0.866600 *  0.443500 *  -2.86902    1.000000    
  13181 O     s    0.543900 *  0.544200 *  0.034100 *  -2.86902    1.000000    
  13182 O     s    0.366300 *  0.366600 *  0.056500 *  -2.86902    1.000000    
  13183 O     s    0.043900 *  0.044200 *  0.534100 *  -2.86902    1.000000    
  13184 O     s    0.866200 *  0.866600 *  0.556500 *  -2.86902    1.000000    
  13185 O     s    0.456600 *  0.034700 *  0.456400 *  -2.86902    1.000000    
  13186 O     s    0.634100 *  0.057000 *  0.634000 *  -2.86902    1.000000    
  13187 O     s    0.956600 *  0.534700 *  0.956400 *  -2.86902    1.000000    
  13188 O     s    0.134200 *  0.557000 *  0.134000 *  -2.86902    1.000000    
  13189 O     s    0.456600 *  0.966400 *  0.543600 *  -2.86902    1.000000    
  13190 O     s    0.634200 *  0.944100 *  0.366000 *  -2.86902    1.000000    
  13191 O     s    0.956600 *  0.466400 *  0.043600 *  -2.86902    1.000000    
  13192 O     s    0.134100 *  0.444100 *  0.866000 *  -2.86902    1.000000    
  13193 O     s    0.543800 *  0.034700 *  0.543600 *  -2.86902    1.000000    
  13194 O     s    0.366300 *  0.057000 *  0.366000 *  -2.86902    1.000000    
  13195 O     s    0.043900 *  0.534700 *  0.043600 *  -2.86902    1.000000    
  13196 O     s    0.866300 *  0.557000 *  0.866000 *  -2.86902    1.000000    
  13197 O     s    0.543900 *  0.966400 *  0.456300 *  -2.86902    1.000000    
  13198 O     s    0.366300 *  0.944100 *  0.634000 *  -2.86902    1.000000    
  13199 O     s    0.043900 *  0.466400 *  0.956400 *  -2.86902    1.000000    
  13200 O     s    0.866300 *  0.444100 *  0.134000 *  -2.86902    1.000000    
--------------------------------------------------------------------------------



********************************************************************************
*  General input information                                                   *
********************************************************************************

  Species output for all configurations : 

--------------------------------------------------------------------------------
  Species    Type    Atomic    Atomic    Charge       Radii (Angs)     Library
                     Number     Mass       (e)     Cova   Ionic  VDW   Symbol
--------------------------------------------------------------------------------
    O        Core        8      16.00   0.869020   0.730  0.000  1.360 O        
    O        Shell       8       0.00  -2.869020   0.730  0.000  0.000 O        
    Si       Core       14      28.09   4.000000   1.200  0.000  2.100 Si       
--------------------------------------------------------------------------------


  Lattice summation method               =    Ewald          (3-D)
                                         =    Parry          (2-D)
                                         =    Saunders et al (1-D)
  Accuracy factor for lattice sums       =   12.000


  Analytic derivatives to be used

  Time limit = Infinity

  Maximum range for interatomic potentials =    100000.000000 Angstroms

  General interatomic potentials :

--------------------------------------------------------------------------------
Atom  Types   Potential      Parameter       Value         Units   Cutoffs(Ang)
  1     2                                                            Min /  Max 
--------------------------------------------------------------------------------
Si   c O    s Buckingham    Buckingham A     1283.9070    eV        0.000 10.000
                            Buckingham rho  0.32052000    Ang       
                            Buckingham C     10.661580    eV*Ang^6  
--------------------------------------------------------------------------------
O    s O    s Buckingham    Buckingham A     22764.000    eV        0.000 12.000
                            Buckingham rho  0.14900000    Ang       
                            Buckingham C     27.879000    eV*Ang^6  
--------------------------------------------------------------------------------
O    c O    s Spring (c-s)  Spring k 2       74.920000    eV*Ang^-2 0.000  1.100
                            Spring k 4       0.0000000    eV*Ang^-4 
--------------------------------------------------------------------------------

  General Three-body potentials :

--------------------------------------------------------------------------------
  Atoms       Potential      Parameter       Value         Units   Cutoffs(Ang)
  1 / 2 / 3                                                          Min /  Max 
--------------------------------------------------------------------------------
Si    core    Harmonic      Three-body cnst  2.0972400    eV*rad^-2 0.000  1.900
O     shel                  Three-body angl  109.47000    degrees   0.000  1.900
O     shel                  Three-body k4    0.0000000    eV*rad^-4 0.000  3.500
                            Three-body k3    0.0000000    eV*rad^-3 
--------------------------------------------------------------------------------
Si    core    Harmonic      Three-body cnst  2.0972400    eV*rad^-2 0.000  1.900
O     shel                  Three-body angl  109.47000    degrees   0.000  1.900
(    shel                  Three-body k4    0.0000000    eV*rad^-4 0.000  3.500
                            Three-body k3    0.0000000    eV*rad^-3 
--------------------------------------------------------------------------------
Si    core    Harmonic      Three-body cnst  2.0972400    eV*rad^-2 0.000  1.900
(    shel                  Three-body angl  109.47000    degrees   0.000  1.900
(    shel                  Three-body k4    0.0000000    eV*rad^-4 0.000  3.500
                            Three-body k3    0.0000000    eV*rad^-3 
--------------------------------------------------------------------------------

********************************************************************************
*  Output for configuration   1 : ReferenceDataBase/RHOG5-PST-20               *
********************************************************************************


  Components of energy : 

--------------------------------------------------------------------------------
  Interatomic potentials     =       83032.35671569 eV    
  Three-body potentials      =          18.34039715 eV    
  Monopole - monopole (real) =     -381049.94232119 eV    
  Monopole - monopole (recip)=      -37226.04142567 eV    
  Monopole - monopole (total)=     -418275.98374686 eV    
--------------------------------------------------------------------------------
  Total lattice energy       =     -335225.28663402 eV    
--------------------------------------------------------------------------------
  Total lattice energy       =       -32344115.7724 kJ/(mole unit cells)
--------------------------------------------------------------------------------


  Number of variables =    39603

  Maximum number of calculations  =           500
  Maximum Hessian update interval =            10
  Maximum step size               =   0.100000000
  Maximum parameter tolerance     =   0.000010000
  Maximum function  tolerance     =   0.000010000
  Maximum gradient  tolerance     =   0.001000000
  Maximum gradient  component     =   0.010000000

  Cell parameters to be optimised using strains

  Newton-Raphson optimiser to be used

  BFGS hessian update to be used

  General 2-D hessian to be used

  Minimiser to switch to RFO
  When gradient norm is less than     0.080000

  Switch max step size to       0.30000000 when gnorm is less than     0.005000

  Dumpfile to be written after every cycle

  Start of bulk optimisation :

