********************************************************************************
*                       GENERAL UTILITY LATTICE PROGRAM                        *
*                                 Julian Gale                                  *
*                       Curtin Institute for Computation                       *
*                    School of Molecular and Life Sciences                     *
*                    Curtin University, Western Australia                      *
********************************************************************************
* Version = 6.1.2 * Last modified =   3rd November 2022                        *
********************************************************************************
*  optimise     - perform optimisation run                                     *
*  conp         - constant pressure calculation                                *
*  nosymmetry   - turn off symmetry after initial structure generation         *
********************************************************************************

  Job Started  at 14:30.57 20th April      2023                               

  Number of CPUs =     8


  Total number of configurations input =      1

********************************************************************************
*  Input for Configuration =   1 : ReferenceDataBase/RHOG4-ZSM-25              *
********************************************************************************

  Formula = Si1440O2880                                                 

  Number of irreducible atoms/shells =    7200


  Total number atoms/shells =    7200

  Dimensionality = 3               :  Bulk   



  Cartesian lattice vectors (Angstroms) :

       44.219700    0.000000    0.000000
        0.000000   44.219700    0.000000
        0.000000    0.000000   44.219700

  Cell parameters (Angstroms/Degrees):

  a =      44.2197    alpha =  90.0000
  b =      44.2197    beta  =  90.0000
  c =      44.2197    gamma =  90.0000

  Initial cell volume =       86466.399592 Angs**3

  Temperature of configuration =   0.00     K 

  Pressure of configuration =         0.000 GPa 

  Fractional coordinates of asymmetric unit :

--------------------------------------------------------------------------------
   No.  Atomic       x           y          z         Charge      Occupancy
        Label      (Frac)      (Frac)     (Frac)        (e)         (Frac)  
--------------------------------------------------------------------------------
      1 Si    c    0.853900 *  0.583400 *  0.534500 *   4.00000    1.000000    
      2 Si    c    0.812700 *  0.638800 *  0.534900 *   4.00000    1.000000    
      3 Si    c    0.742900 *  0.639200 *  0.534900 *   4.00000    1.000000    
      4 Si    c    0.701900 *  0.583500 *  0.534700 *   4.00000    1.000000    
      5 Si    c    0.632500 *  0.583600 *  0.534500 *   4.00000    1.000000    
      6 Si    c    0.576800 *  0.083400 *  0.034600 *   4.00000    1.000000    
      7 Si    c    0.534800 *  0.137900 *  0.034900 *   4.00000    1.000000    
      8 Si    c    0.694300 *  0.645300 *  0.812900 *   4.00000    1.000000    
      9 Si    c    0.743700 *  0.576200 *  0.694800 *   4.00000    1.000000    
     10 Si    c    0.694500 *  0.645400 *  0.743600 *   4.00000    1.000000    
     11 Si    c    0.694800 *  0.813300 *  0.575800 *   4.00000    1.000000    
     12 Si    c    0.965400 *  0.693800 *  0.644800 *   4.00000    1.000000    
     13 Si    c    0.924500 *  0.805700 *  0.534800 *   4.00000    1.000000    
     14 Si    c    0.923900 *  0.354200 *  0.749300 *   4.00000    1.000000    
     15 O     c    0.832700 *  0.610600 *  0.545400 *   0.86902    1.000000    
     16 O     c    0.777800 *  0.630600 *  0.540700 *   0.86902    1.000000    
     17 O     c    0.722700 *  0.611100 *  0.545400 *   0.86902    1.000000    
     18 O     c    0.667200 *  0.593300 *  0.539500 *   0.86902    1.000000    
     19 O     c    0.111400 *  0.593700 *  0.538900 *   0.86902    1.000000    
     20 O     c    0.555500 *  0.110400 *  0.045700 *   0.86902    1.000000    
     21 O     c    0.685800 *  0.610500 *  0.819100 *   0.86902    1.000000    
     22 O     c    0.704300 *  0.778200 *  0.650500 *   0.86902    1.000000    
     23 O     c    0.738500 *  0.684500 *  0.610800 *   0.86902    1.000000    
     24 O     c    0.778400 *  0.570100 *  0.703500 *   0.86902    1.000000    
     25 O     c    0.333100 *  0.555000 *  0.176900 *   0.86902    1.000000    
     26 O     c    0.332300 *  0.554800 *  0.267000 *   0.86902    1.000000    
     27 O     c    0.934200 *  0.777100 *  0.666400 *   0.86902    1.000000    
     28 O     c    0.945400 *  0.833500 *  0.455600 *   0.86902    1.000000    
     29 O     c    0.778000 *  0.934300 *  0.444300 *   0.86902    1.000000    
     30 O     c    0.778200 *  0.666100 *  0.844100 *   0.86902    1.000000    
     31 O     c    0.741100 *  0.111100 *  0.348400 *   0.86902    1.000000    
     32 O     c    0.611000 *  0.070300 *  0.241700 *   0.86902    1.000000    
     33 O     c    0.889900 *  0.540800 *  0.185000 *   0.86902    1.000000    
     34 O     c    0.344500 *  0.279200 *  0.056100 *   0.86902    1.000000    
     35 Si    c    0.750000 *  0.354100 *  0.145900 *   4.00000    1.000000    
     36 Si    c    0.250000 *  0.923900 *  0.576100 *   4.00000    1.000000    
     37 O     c    0.818600 *  0.353000 *  0.500000 *   0.86902    1.000000    
     38 O     c    0.929900 *  0.796500 *  0.500000 *   0.86902    1.000000    
     39 O     c    0.847100 *  0.574600 *  0.500000 *   0.86902    1.000000    
     40 O     c    0.737000 *  0.647400 *  0.500000 *   0.86902    1.000000    
     41 O     c    0.708500 *  0.575000 *  0.500000 *   0.86902    1.000000    
     42 O     c    0.626800 *  0.573600 *  0.500000 *   0.86902    1.000000    
     43 O     c    0.569800 *  0.074800 *  0.000000 *   0.86902    1.000000    
     44 O     c    0.540700 *  0.146100 *  0.000000 *   0.86902    1.000000    
     45 O     c    0.850500 *  0.500000 *  0.204200 *   0.86902    1.000000    
     46 O     c    0.569200 *  0.053800 *  0.053800 *   0.86902    1.000000    
     47 O     c    0.846100 *  0.554100 *  0.554100 *   0.86902    1.000000    
     48 O     c    0.710100 *  0.554200 *  0.554200 *   0.86902    1.000000    
     49 O     c    0.623500 *  0.555100 *  0.555100 *   0.86902    1.000000    
     50 O     c    0.734600 *  0.666000 *  0.666000 *   0.86902    1.000000    
     51 O     c    0.335700 *  0.335700 *  0.042300 *   0.86902    1.000000    
     52 O     c    0.664800 *  0.664800 *  0.821000 *   0.86902    1.000000    
     53 O     c    0.724400 *  0.724400 *  0.568200 *   0.86902    1.000000    
     54 O     c    0.612300 *  0.612300 *  0.543600 *   0.86902    1.000000    
     55 O     c    0.723100 *  0.654200 *  0.723100 *   0.86902    1.000000    
     56 O     c    0.500000 *  0.129000 *  0.040600 *   0.86902    1.000000    
     57 Si    c    0.416600 *  0.853900 *  0.534500 *   4.00000    1.000000    
     58 Si    c    0.361200 *  0.812700 *  0.534900 *   4.00000    1.000000    
     59 Si    c    0.360800 *  0.742900 *  0.534900 *   4.00000    1.000000    
     60 Si    c    0.416500 *  0.701900 *  0.534700 *   4.00000    1.000000    
     61 Si    c    0.416400 *  0.632500 *  0.534500 *   4.00000    1.000000    
     62 Si    c    0.916600 *  0.576800 *  0.034600 *   4.00000    1.000000    
     63 Si    c    0.862100 *  0.534800 *  0.034900 *   4.00000    1.000000    
     64 Si    c    0.354700 *  0.694300 *  0.812900 *   4.00000    1.000000    
     65 Si    c    0.423800 *  0.743700 *  0.694800 *   4.00000    1.000000    
     66 Si    c    0.354600 *  0.694500 *  0.743600 *   4.00000    1.000000    
     67 Si    c    0.186700 *  0.694800 *  0.575800 *   4.00000    1.000000    
     68 Si    c    0.306200 *  0.965400 *  0.644800 *   4.00000    1.000000    
     69 Si    c    0.194300 *  0.924500 *  0.534800 *   4.00000    1.000000    
     70 Si    c    0.645800 *  0.923900 *  0.749300 *   4.00000    1.000000    
     71 O     c    0.389400 *  0.832700 *  0.545400 *   0.86902    1.000000    
     72 O     c    0.369400 *  0.777800 *  0.540700 *   0.86902    1.000000    
     73 O     c    0.388900 *  0.722700 *  0.545400 *   0.86902    1.000000    
     74 O     c    0.406700 *  0.667200 *  0.539500 *   0.86902    1.000000    
     75 O     c    0.406300 *  0.111400 *  0.538900 *   0.86902    1.000000    
     76 O     c    0.889600 *  0.555500 *  0.045700 *   0.86902    1.000000    
     77 O     c    0.389500 *  0.685800 *  0.819100 *   0.86902    1.000000    
     78 O     c    0.221800 *  0.704300 *  0.650500 *   0.86902    1.000000    
     79 O     c    0.315500 *  0.738500 *  0.610800 *   0.86902    1.000000    
     80 O     c    0.429900 *  0.778400 *  0.703500 *   0.86902    1.000000    
     81 O     c    0.445000 *  0.333100 *  0.176900 *   0.86902    1.000000    
     82 O     c    0.445200 *  0.332300 *  0.267000 *   0.86902    1.000000    
     83 O     c    0.222900 *  0.934200 *  0.666400 *   0.86902    1.000000    
     84 O     c    0.166500 *  0.945400 *  0.455600 *   0.86902    1.000000    
     85 O     c    0.065700 *  0.778000 *  0.444300 *   0.86902    1.000000    
     86 O     c    0.333900 *  0.778200 *  0.844100 *   0.86902    1.000000    
     87 O     c    0.888900 *  0.741100 *  0.348400 *   0.86902    1.000000    
     88 O     c    0.929700 *  0.611000 *  0.241700 *   0.86902    1.000000    
     89 O     c    0.459200 *  0.889900 *  0.185000 *   0.86902    1.000000    
     90 O     c    0.720800 *  0.344500 *  0.056100 *   0.86902    1.000000    
     91 Si    c    0.645900 *  0.750000 *  0.145900 *   4.00000    1.000000    
     92 Si    c    0.076100 *  0.250000 *  0.576100 *   4.00000    1.000000    
     93 O     c    0.647000 *  0.818600 *  0.500000 *   0.86902    1.000000    
     94 O     c    0.203500 *  0.929900 *  0.500000 *   0.86902    1.000000    
     95 O     c    0.425400 *  0.847100 *  0.500000 *   0.86902    1.000000    
     96 O     c    0.352600 *  0.737000 *  0.500000 *   0.86902    1.000000    
     97 O     c    0.425000 *  0.708500 *  0.500000 *   0.86902    1.000000    
     98 O     c    0.426400 *  0.626800 *  0.500000 *   0.86902    1.000000    
     99 O     c    0.925200 *  0.569800 *  0.000000 *   0.86902    1.000000    
    100 O     c    0.853900 *  0.540700 *  0.000000 *   0.86902    1.000000    
    101 O     c    0.500000 *  0.850500 *  0.204200 *   0.86902    1.000000    
    102 O     c    0.946200 *  0.569200 *  0.053800 *   0.86902    1.000000    
    103 O     c    0.445900 *  0.846100 *  0.554100 *   0.86902    1.000000    
    104 O     c    0.445800 *  0.710100 *  0.554200 *   0.86902    1.000000    
    105 O     c    0.444900 *  0.623500 *  0.555100 *   0.86902    1.000000    
    106 O     c    0.334000 *  0.734600 *  0.666000 *   0.86902    1.000000    
    107 O     c    0.664300 *  0.335700 *  0.042300 *   0.86902    1.000000    
    108 O     c    0.335200 *  0.664800 *  0.821000 *   0.86902    1.000000    
    109 O     c    0.275600 *  0.724400 *  0.568200 *   0.86902    1.000000    
    110 O     c    0.387700 *  0.612300 *  0.543600 *   0.86902    1.000000    
    111 O     c    0.345800 *  0.723100 *  0.723100 *   0.86902    1.000000    
    112 O     c    0.871000 *  0.500000 *  0.040600 *   0.86902    1.000000    
    113 Si    c    0.146100 *  0.416600 *  0.534500 *   4.00000    1.000000    
    114 Si    c    0.187300 *  0.361200 *  0.534900 *   4.00000    1.000000    
    115 Si    c    0.257100 *  0.360800 *  0.534900 *   4.00000    1.000000    
    116 Si    c    0.298100 *  0.416500 *  0.534700 *   4.00000    1.000000    
    117 Si    c    0.367500 *  0.416400 *  0.534500 *   4.00000    1.000000    
    118 Si    c    0.423200 *  0.916600 *  0.034600 *   4.00000    1.000000    
    119 Si    c    0.465200 *  0.862100 *  0.034900 *   4.00000    1.000000    
    120 Si    c    0.305700 *  0.354700 *  0.812900 *   4.00000    1.000000    
    121 Si    c    0.256300 *  0.423800 *  0.694800 *   4.00000    1.000000    
    122 Si    c    0.305500 *  0.354600 *  0.743600 *   4.00000    1.000000    
    123 Si    c    0.305200 *  0.186700 *  0.575800 *   4.00000    1.000000    
    124 Si    c    0.034600 *  0.306200 *  0.644800 *   4.00000    1.000000    
    125 Si    c    0.075500 *  0.194300 *  0.534800 *   4.00000    1.000000    
    126 Si    c    0.076100 *  0.645800 *  0.749300 *   4.00000    1.000000    
    127 O     c    0.167300 *  0.389400 *  0.545400 *   0.86902    1.000000    
    128 O     c    0.222200 *  0.369400 *  0.540700 *   0.86902    1.000000    
    129 O     c    0.277300 *  0.388900 *  0.545400 *   0.86902    1.000000    
    130 O     c    0.332800 *  0.406700 *  0.539500 *   0.86902    1.000000    
    131 O     c    0.888600 *  0.406300 *  0.538900 *   0.86902    1.000000    
    132 O     c    0.444500 *  0.889600 *  0.045700 *   0.86902    1.000000    
    133 O     c    0.314200 *  0.389500 *  0.819100 *   0.86902    1.000000    
    134 O     c    0.295700 *  0.221800 *  0.650500 *   0.86902    1.000000    
    135 O     c    0.261500 *  0.315500 *  0.610800 *   0.86902    1.000000    
    136 O     c    0.221600 *  0.429900 *  0.703500 *   0.86902    1.000000    
    137 O     c    0.666900 *  0.445000 *  0.176900 *   0.86902    1.000000    
    138 O     c    0.667700 *  0.445200 *  0.267000 *   0.86902    1.000000    
    139 O     c    0.065800 *  0.222900 *  0.666400 *   0.86902    1.000000    
    140 O     c    0.054600 *  0.166500 *  0.455600 *   0.86902    1.000000    
    141 O     c    0.222000 *  0.065700 *  0.444300 *   0.86902    1.000000    
    142 O     c    0.221800 *  0.333900 *  0.844100 *   0.86902    1.000000    
    143 O     c    0.258900 *  0.888900 *  0.348400 *   0.86902    1.000000    
    144 O     c    0.389000 *  0.929700 *  0.241700 *   0.86902    1.000000    
    145 O     c    0.110100 *  0.459200 *  0.185000 *   0.86902    1.000000    
    146 O     c    0.655500 *  0.720800 *  0.056100 *   0.86902    1.000000    
    147 Si    c    0.250000 *  0.645900 *  0.145900 *   4.00000    1.000000    
    148 Si    c    0.750000 *  0.076100 *  0.576100 *   4.00000    1.000000    
    149 O     c    0.181400 *  0.647000 *  0.500000 *   0.86902    1.000000    
    150 O     c    0.070100 *  0.203500 *  0.500000 *   0.86902    1.000000    
    151 O     c    0.152900 *  0.425400 *  0.500000 *   0.86902    1.000000    
    152 O     c    0.263000 *  0.352600 *  0.500000 *   0.86902    1.000000    
    153 O     c    0.291500 *  0.425000 *  0.500000 *   0.86902    1.000000    
    154 O     c    0.373200 *  0.426400 *  0.500000 *   0.86902    1.000000    
    155 O     c    0.430200 *  0.925200 *  0.000000 *   0.86902    1.000000    
    156 O     c    0.459300 *  0.853900 *  0.000000 *   0.86902    1.000000    
    157 O     c    0.149500 *  0.500000 *  0.204200 *   0.86902    1.000000    
    158 O     c    0.430800 *  0.946200 *  0.053800 *   0.86902    1.000000    
    159 O     c    0.153900 *  0.445900 *  0.554100 *   0.86902    1.000000    
    160 O     c    0.289900 *  0.445800 *  0.554200 *   0.86902    1.000000    
    161 O     c    0.376500 *  0.444900 *  0.555100 *   0.86902    1.000000    
    162 O     c    0.265400 *  0.334000 *  0.666000 *   0.86902    1.000000    
    163 O     c    0.664300 *  0.664300 *  0.042300 *   0.86902    1.000000    
    164 O     c    0.335200 *  0.335200 *  0.821000 *   0.86902    1.000000    
    165 O     c    0.275600 *  0.275600 *  0.568200 *   0.86902    1.000000    
    166 O     c    0.387700 *  0.387700 *  0.543600 *   0.86902    1.000000    
    167 O     c    0.276900 *  0.345800 *  0.723100 *   0.86902    1.000000    
    168 O     c    0.500000 *  0.871000 *  0.040600 *   0.86902    1.000000    
    169 Si    c    0.583400 *  0.146100 *  0.534500 *   4.00000    1.000000    
    170 Si    c    0.638800 *  0.187300 *  0.534900 *   4.00000    1.000000    
    171 Si    c    0.639200 *  0.257100 *  0.534900 *   4.00000    1.000000    
    172 Si    c    0.583500 *  0.298100 *  0.534700 *   4.00000    1.000000    
    173 Si    c    0.583600 *  0.367500 *  0.534500 *   4.00000    1.000000    
    174 Si    c    0.083400 *  0.423200 *  0.034600 *   4.00000    1.000000    
    175 Si    c    0.137900 *  0.465200 *  0.034900 *   4.00000    1.000000    
    176 Si    c    0.645300 *  0.305700 *  0.812900 *   4.00000    1.000000    
    177 Si    c    0.576200 *  0.256300 *  0.694800 *   4.00000    1.000000    
    178 Si    c    0.645400 *  0.305500 *  0.743600 *   4.00000    1.000000    
    179 Si    c    0.813300 *  0.305200 *  0.575800 *   4.00000    1.000000    
    180 Si    c    0.693800 *  0.034600 *  0.644800 *   4.00000    1.000000    
    181 Si    c    0.805700 *  0.075500 *  0.534800 *   4.00000    1.000000    
    182 Si    c    0.354200 *  0.076100 *  0.749300 *   4.00000    1.000000    
    183 O     c    0.610600 *  0.167300 *  0.545400 *   0.86902    1.000000    
    184 O     c    0.630600 *  0.222200 *  0.540700 *   0.86902    1.000000    
    185 O     c    0.611100 *  0.277300 *  0.545400 *   0.86902    1.000000    
    186 O     c    0.593300 *  0.332800 *  0.539500 *   0.86902    1.000000    
    187 O     c    0.593700 *  0.888600 *  0.538900 *   0.86902    1.000000    
    188 O     c    0.110400 *  0.444500 *  0.045700 *   0.86902    1.000000    
    189 O     c    0.610500 *  0.314200 *  0.819100 *   0.86902    1.000000    
    190 O     c    0.778200 *  0.295700 *  0.650500 *   0.86902    1.000000    
    191 O     c    0.684500 *  0.261500 *  0.610800 *   0.86902    1.000000    
    192 O     c    0.570100 *  0.221600 *  0.703500 *   0.86902    1.000000    
    193 O     c    0.555000 *  0.666900 *  0.176900 *   0.86902    1.000000    
    194 O     c    0.554800 *  0.667700 *  0.267000 *   0.86902    1.000000    
    195 O     c    0.777100 *  0.065800 *  0.666400 *   0.86902    1.000000    
    196 O     c    0.833500 *  0.054600 *  0.455600 *   0.86902    1.000000    
    197 O     c    0.934300 *  0.222000 *  0.444300 *   0.86902    1.000000    
    198 O     c    0.666100 *  0.221800 *  0.844100 *   0.86902    1.000000    
    199 O     c    0.111100 *  0.258900 *  0.348400 *   0.86902    1.000000    
    200 O     c    0.070300 *  0.389000 *  0.241700 *   0.86902    1.000000    
    201 O     c    0.540800 *  0.110100 *  0.185000 *   0.86902    1.000000    
    202 O     c    0.279200 *  0.655500 *  0.056100 *   0.86902    1.000000    
    203 Si    c    0.354100 *  0.250000 *  0.145900 *   4.00000    1.000000    
    204 Si    c    0.923900 *  0.750000 *  0.576100 *   4.00000    1.000000    
    205 O     c    0.353000 *  0.181400 *  0.500000 *   0.86902    1.000000    
    206 O     c    0.796500 *  0.070100 *  0.500000 *   0.86902    1.000000    
    207 O     c    0.574600 *  0.152900 *  0.500000 *   0.86902    1.000000    
    208 O     c    0.647400 *  0.263000 *  0.500000 *   0.86902    1.000000    
    209 O     c    0.575000 *  0.291500 *  0.500000 *   0.86902    1.000000    
    210 O     c    0.573600 *  0.373200 *  0.500000 *   0.86902    1.000000    
    211 O     c    0.074800 *  0.430200 *  0.000000 *   0.86902    1.000000    
    212 O     c    0.146100 *  0.459300 *  0.000000 *   0.86902    1.000000    
    213 O     c    0.500000 *  0.149500 *  0.204200 *   0.86902    1.000000    
    214 O     c    0.053800 *  0.430800 *  0.053800 *   0.86902    1.000000    
    215 O     c    0.554100 *  0.153900 *  0.554100 *   0.86902    1.000000    
    216 O     c    0.554200 *  0.289900 *  0.554200 *   0.86902    1.000000    
    217 O     c    0.555100 *  0.376500 *  0.555100 *   0.86902    1.000000    
    218 O     c    0.666000 *  0.265400 *  0.666000 *   0.86902    1.000000    
    219 O     c    0.335700 *  0.664300 *  0.042300 *   0.86902    1.000000    
    220 O     c    0.664800 *  0.335200 *  0.821000 *   0.86902    1.000000    
    221 O     c    0.724400 *  0.275600 *  0.568200 *   0.86902    1.000000    
    222 O     c    0.612300 *  0.387700 *  0.543600 *   0.86902    1.000000    
    223 O     c    0.654200 *  0.276900 *  0.723100 *   0.86902    1.000000    
    224 O     c    0.129000 *  0.500000 *  0.040600 *   0.86902    1.000000    
    225 Si    c    0.853900 *  0.416600 *  0.465500 *   4.00000    1.000000    
    226 Si    c    0.812700 *  0.361200 *  0.465100 *   4.00000    1.000000    
    227 Si    c    0.742900 *  0.360800 *  0.465100 *   4.00000    1.000000    
    228 Si    c    0.701900 *  0.416500 *  0.465300 *   4.00000    1.000000    
    229 Si    c    0.632500 *  0.416400 *  0.465500 *   4.00000    1.000000    
    230 Si    c    0.576800 *  0.916600 *  0.965400 *   4.00000    1.000000    
    231 Si    c    0.534800 *  0.862100 *  0.965100 *   4.00000    1.000000    
    232 Si    c    0.694300 *  0.354700 *  0.187100 *   4.00000    1.000000    
    233 Si    c    0.743700 *  0.423800 *  0.305200 *   4.00000    1.000000    
    234 Si    c    0.694500 *  0.354600 *  0.256400 *   4.00000    1.000000    
    235 Si    c    0.694800 *  0.186700 *  0.424200 *   4.00000    1.000000    
    236 Si    c    0.965400 *  0.306200 *  0.355200 *   4.00000    1.000000    
    237 Si    c    0.924500 *  0.194300 *  0.465200 *   4.00000    1.000000    
    238 Si    c    0.923900 *  0.645800 *  0.250700 *   4.00000    1.000000    
    239 O     c    0.832700 *  0.389400 *  0.454600 *   0.86902    1.000000    
    240 O     c    0.777800 *  0.369400 *  0.459300 *   0.86902    1.000000    
    241 O     c    0.722700 *  0.388900 *  0.454600 *   0.86902    1.000000    
    242 O     c    0.667200 *  0.406700 *  0.460500 *   0.86902    1.000000    
    243 O     c    0.111400 *  0.406300 *  0.461100 *   0.86902    1.000000    
    244 O     c    0.555500 *  0.889600 *  0.954300 *   0.86902    1.000000    
    245 O     c    0.685800 *  0.389500 *  0.180900 *   0.86902    1.000000    
    246 O     c    0.704300 *  0.221800 *  0.349500 *   0.86902    1.000000    
    247 O     c    0.738500 *  0.315500 *  0.389200 *   0.86902    1.000000    
    248 O     c    0.778400 *  0.429900 *  0.296500 *   0.86902    1.000000    
    249 O     c    0.333100 *  0.445000 *  0.823100 *   0.86902    1.000000    
    250 O     c    0.332300 *  0.445200 *  0.733000 *   0.86902    1.000000    
    251 O     c    0.934200 *  0.222900 *  0.333600 *   0.86902    1.000000    
    252 O     c    0.945400 *  0.166500 *  0.544400 *   0.86902    1.000000    
    253 O     c    0.778000 *  0.065700 *  0.555700 *   0.86902    1.000000    
    254 O     c    0.778200 *  0.333900 *  0.155900 *   0.86902    1.000000    
    255 O     c    0.741100 *  0.888900 *  0.651600 *   0.86902    1.000000    
    256 O     c    0.611000 *  0.929700 *  0.758300 *   0.86902    1.000000    
    257 O     c    0.889900 *  0.459200 *  0.815000 *   0.86902    1.000000    
    258 O     c    0.344500 *  0.720800 *  0.943900 *   0.86902    1.000000    
    259 Si    c    0.750000 *  0.645900 *  0.854100 *   4.00000    1.000000    
    260 Si    c    0.250000 *  0.076100 *  0.423900 *   4.00000    1.000000    
    261 O     c    0.818600 *  0.647000 *  0.500000 *   0.86902    1.000000    
    262 O     c    0.929900 *  0.203500 *  0.500000 *   0.86902    1.000000    
    263 O     c    0.847100 *  0.425400 *  0.500000 *   0.86902    1.000000    
    264 O     c    0.737000 *  0.352600 *  0.500000 *   0.86902    1.000000    
    265 O     c    0.708500 *  0.425000 *  0.500000 *   0.86902    1.000000    
    266 O     c    0.626800 *  0.426400 *  0.500000 *   0.86902    1.000000    
    267 O     c    0.569800 *  0.925200 *  0.000000 *   0.86902    1.000000    
    268 O     c    0.540700 *  0.853900 *  0.000000 *   0.86902    1.000000    
    269 O     c    0.850500 *  0.500000 *  0.795800 *   0.86902    1.000000    
    270 O     c    0.569200 *  0.946200 *  0.946200 *   0.86902    1.000000    
    271 O     c    0.846100 *  0.445900 *  0.445900 *   0.86902    1.000000    
    272 O     c    0.710100 *  0.445800 *  0.445800 *   0.86902    1.000000    
    273 O     c    0.623500 *  0.444900 *  0.444900 *   0.86902    1.000000    
    274 O     c    0.734600 *  0.334000 *  0.334000 *   0.86902    1.000000    
    275 O     c    0.335700 *  0.664300 *  0.957700 *   0.86902    1.000000    
    276 O     c    0.664800 *  0.335200 *  0.179000 *   0.86902    1.000000    
    277 O     c    0.724400 *  0.275600 *  0.431800 *   0.86902    1.000000    
    278 O     c    0.612300 *  0.387700 *  0.456400 *   0.86902    1.000000    
    279 O     c    0.723100 *  0.345800 *  0.276900 *   0.86902    1.000000    
    280 O     c    0.500000 *  0.871000 *  0.959400 *   0.86902    1.000000    
    281 Si    c    0.583400 *  0.853900 *  0.465500 *   4.00000    1.000000    
    282 Si    c    0.638800 *  0.812700 *  0.465100 *   4.00000    1.000000    
    283 Si    c    0.639200 *  0.742900 *  0.465100 *   4.00000    1.000000    
    284 Si    c    0.583500 *  0.701900 *  0.465300 *   4.00000    1.000000    
    285 Si    c    0.583600 *  0.632500 *  0.465500 *   4.00000    1.000000    
    286 Si    c    0.083400 *  0.576800 *  0.965400 *   4.00000    1.000000    
    287 Si    c    0.137900 *  0.534800 *  0.965100 *   4.00000    1.000000    
    288 Si    c    0.645300 *  0.694300 *  0.187100 *   4.00000    1.000000    
    289 Si    c    0.576200 *  0.743700 *  0.305200 *   4.00000    1.000000    
    290 Si    c    0.645400 *  0.694500 *  0.256400 *   4.00000    1.000000    
    291 Si    c    0.813300 *  0.694800 *  0.424200 *   4.00000    1.000000    
    292 Si    c    0.693800 *  0.965400 *  0.355200 *   4.00000    1.000000    
    293 Si    c    0.805700 *  0.924500 *  0.465200 *   4.00000    1.000000    
    294 Si    c    0.354200 *  0.923900 *  0.250700 *   4.00000    1.000000    
    295 O     c    0.610600 *  0.832700 *  0.454600 *   0.86902    1.000000    
    296 O     c    0.630600 *  0.777800 *  0.459300 *   0.86902    1.000000    
    297 O     c    0.611100 *  0.722700 *  0.454600 *   0.86902    1.000000    
    298 O     c    0.593300 *  0.667200 *  0.460500 *   0.86902    1.000000    
    299 O     c    0.593700 *  0.111400 *  0.461100 *   0.86902    1.000000    
    300 O     c    0.110400 *  0.555500 *  0.954300 *   0.86902    1.000000    
    301 O     c    0.610500 *  0.685800 *  0.180900 *   0.86902    1.000000    
    302 O     c    0.778200 *  0.704300 *  0.349500 *   0.86902    1.000000    
    303 O     c    0.684500 *  0.738500 *  0.389200 *   0.86902    1.000000    
    304 O     c    0.570100 *  0.778400 *  0.296500 *   0.86902    1.000000    
    305 O     c    0.555000 *  0.333100 *  0.823100 *   0.86902    1.000000    
    306 O     c    0.554800 *  0.332300 *  0.733000 *   0.86902    1.000000    
    307 O     c    0.777100 *  0.934200 *  0.333600 *   0.86902    1.000000    
    308 O     c    0.833500 *  0.945400 *  0.544400 *   0.86902    1.000000    
    309 O     c    0.934300 *  0.778000 *  0.555700 *   0.86902    1.000000    
    310 O     c    0.666100 *  0.778200 *  0.155900 *   0.86902    1.000000    
    311 O     c    0.111100 *  0.741100 *  0.651600 *   0.86902    1.000000    
    312 O     c    0.070300 *  0.611000 *  0.758300 *   0.86902    1.000000    
    313 O     c    0.540800 *  0.889900 *  0.815000 *   0.86902    1.000000    
    314 O     c    0.279200 *  0.344500 *  0.943900 *   0.86902    1.000000    
    315 Si    c    0.354100 *  0.750000 *  0.854100 *   4.00000    1.000000    
    316 Si    c    0.923900 *  0.250000 *  0.423900 *   4.00000    1.000000    
    317 O     c    0.353000 *  0.818600 *  0.500000 *   0.86902    1.000000    
    318 O     c    0.796500 *  0.929900 *  0.500000 *   0.86902    1.000000    
    319 O     c    0.574600 *  0.847100 *  0.500000 *   0.86902    1.000000    
    320 O     c    0.647400 *  0.737000 *  0.500000 *   0.86902    1.000000    
    321 O     c    0.575000 *  0.708500 *  0.500000 *   0.86902    1.000000    
    322 O     c    0.573600 *  0.626800 *  0.500000 *   0.86902    1.000000    
    323 O     c    0.074800 *  0.569800 *  0.000000 *   0.86902    1.000000    
    324 O     c    0.146100 *  0.540700 *  0.000000 *   0.86902    1.000000    
    325 O     c    0.500000 *  0.850500 *  0.795800 *   0.86902    1.000000    
    326 O     c    0.053800 *  0.569200 *  0.946200 *   0.86902    1.000000    
    327 O     c    0.554100 *  0.846100 *  0.445900 *   0.86902    1.000000    
    328 O     c    0.554200 *  0.710100 *  0.445800 *   0.86902    1.000000    
    329 O     c    0.555100 *  0.623500 *  0.444900 *   0.86902    1.000000    
    330 O     c    0.666000 *  0.734600 *  0.334000 *   0.86902    1.000000    
    331 O     c    0.335700 *  0.335700 *  0.957700 *   0.86902    1.000000    
    332 O     c    0.664800 *  0.664800 *  0.179000 *   0.86902    1.000000    
    333 O     c    0.724400 *  0.724400 *  0.431800 *   0.86902    1.000000    
    334 O     c    0.612300 *  0.612300 *  0.456400 *   0.86902    1.000000    
    335 O     c    0.654200 *  0.723100 *  0.276900 *   0.86902    1.000000    
    336 O     c    0.129000 *  0.500000 *  0.959400 *   0.86902    1.000000    
    337 Si    c    0.146100 *  0.583400 *  0.465500 *   4.00000    1.000000    
    338 Si    c    0.187300 *  0.638800 *  0.465100 *   4.00000    1.000000    
    339 Si    c    0.257100 *  0.639200 *  0.465100 *   4.00000    1.000000    
    340 Si    c    0.298100 *  0.583500 *  0.465300 *   4.00000    1.000000    
    341 Si    c    0.367500 *  0.583600 *  0.465500 *   4.00000    1.000000    
    342 Si    c    0.423200 *  0.083400 *  0.965400 *   4.00000    1.000000    
    343 Si    c    0.465200 *  0.137900 *  0.965100 *   4.00000    1.000000    
    344 Si    c    0.305700 *  0.645300 *  0.187100 *   4.00000    1.000000    
    345 Si    c    0.256300 *  0.576200 *  0.305200 *   4.00000    1.000000    
    346 Si    c    0.305500 *  0.645400 *  0.256400 *   4.00000    1.000000    
    347 Si    c    0.305200 *  0.813300 *  0.424200 *   4.00000    1.000000    
    348 Si    c    0.034600 *  0.693800 *  0.355200 *   4.00000    1.000000    
    349 Si    c    0.075500 *  0.805700 *  0.465200 *   4.00000    1.000000    
    350 Si    c    0.076100 *  0.354200 *  0.250700 *   4.00000    1.000000    
    351 O     c    0.167300 *  0.610600 *  0.454600 *   0.86902    1.000000    
    352 O     c    0.222200 *  0.630600 *  0.459300 *   0.86902    1.000000    
    353 O     c    0.277300 *  0.611100 *  0.454600 *   0.86902    1.000000    
    354 O     c    0.332800 *  0.593300 *  0.460500 *   0.86902    1.000000    
    355 O     c    0.888600 *  0.593700 *  0.461100 *   0.86902    1.000000    
    356 O     c    0.444500 *  0.110400 *  0.954300 *   0.86902    1.000000    
    357 O     c    0.314200 *  0.610500 *  0.180900 *   0.86902    1.000000    
    358 O     c    0.295700 *  0.778200 *  0.349500 *   0.86902    1.000000    
    359 O     c    0.261500 *  0.684500 *  0.389200 *   0.86902    1.000000    
    360 O     c    0.221600 *  0.570100 *  0.296500 *   0.86902    1.000000    
    361 O     c    0.666900 *  0.555000 *  0.823100 *   0.86902    1.000000    
    362 O     c    0.667700 *  0.554800 *  0.733000 *   0.86902    1.000000    
    363 O     c    0.065800 *  0.777100 *  0.333600 *   0.86902    1.000000    
    364 O     c    0.054600 *  0.833500 *  0.544400 *   0.86902    1.000000    
    365 O     c    0.222000 *  0.934300 *  0.555700 *   0.86902    1.000000    
    366 O     c    0.221800 *  0.666100 *  0.155900 *   0.86902    1.000000    
    367 O     c    0.258900 *  0.111100 *  0.651600 *   0.86902    1.000000    
    368 O     c    0.389000 *  0.070300 *  0.758300 *   0.86902    1.000000    
    369 O     c    0.110100 *  0.540800 *  0.815000 *   0.86902    1.000000    
    370 O     c    0.655500 *  0.279200 *  0.943900 *   0.86902    1.000000    
    371 Si    c    0.250000 *  0.354100 *  0.854100 *   4.00000    1.000000    
    372 Si    c    0.750000 *  0.923900 *  0.423900 *   4.00000    1.000000    
    373 O     c    0.181400 *  0.353000 *  0.500000 *   0.86902    1.000000    
    374 O     c    0.070100 *  0.796500 *  0.500000 *   0.86902    1.000000    
    375 O     c    0.152900 *  0.574600 *  0.500000 *   0.86902    1.000000    
    376 O     c    0.263000 *  0.647400 *  0.500000 *   0.86902    1.000000    
    377 O     c    0.291500 *  0.575000 *  0.500000 *   0.86902    1.000000    
    378 O     c    0.373200 *  0.573600 *  0.500000 *   0.86902    1.000000    
    379 O     c    0.430200 *  0.074800 *  0.000000 *   0.86902    1.000000    
    380 O     c    0.459300 *  0.146100 *  0.000000 *   0.86902    1.000000    
    381 O     c    0.149500 *  0.500000 *  0.795800 *   0.86902    1.000000    
    382 O     c    0.430800 *  0.053800 *  0.946200 *   0.86902    1.000000    
    383 O     c    0.153900 *  0.554100 *  0.445900 *   0.86902    1.000000    
    384 O     c    0.289900 *  0.554200 *  0.445800 *   0.86902    1.000000    
    385 O     c    0.376500 *  0.555100 *  0.444900 *   0.86902    1.000000    
    386 O     c    0.265400 *  0.666000 *  0.334000 *   0.86902    1.000000    
    387 O     c    0.664300 *  0.335700 *  0.957700 *   0.86902    1.000000    
    388 O     c    0.335200 *  0.664800 *  0.179000 *   0.86902    1.000000    
    389 O     c    0.275600 *  0.724400 *  0.431800 *   0.86902    1.000000    
    390 O     c    0.387700 *  0.612300 *  0.456400 *   0.86902    1.000000    
    391 O     c    0.276900 *  0.654200 *  0.276900 *   0.86902    1.000000    
    392 O     c    0.500000 *  0.129000 *  0.959400 *   0.86902    1.000000    
    393 Si    c    0.416600 *  0.146100 *  0.465500 *   4.00000    1.000000    
    394 Si    c    0.361200 *  0.187300 *  0.465100 *   4.00000    1.000000    
    395 Si    c    0.360800 *  0.257100 *  0.465100 *   4.00000    1.000000    
    396 Si    c    0.416500 *  0.298100 *  0.465300 *   4.00000    1.000000    
    397 Si    c    0.416400 *  0.367500 *  0.465500 *   4.00000    1.000000    
    398 Si    c    0.916600 *  0.423200 *  0.965400 *   4.00000    1.000000    
    399 Si    c    0.862100 *  0.465200 *  0.965100 *   4.00000    1.000000    
    400 Si    c    0.354700 *  0.305700 *  0.187100 *   4.00000    1.000000    
    401 Si    c    0.423800 *  0.256300 *  0.305200 *   4.00000    1.000000    
    402 Si    c    0.354600 *  0.305500 *  0.256400 *   4.00000    1.000000    
    403 Si    c    0.186700 *  0.305200 *  0.424200 *   4.00000    1.000000    
    404 Si    c    0.306200 *  0.034600 *  0.355200 *   4.00000    1.000000    
    405 Si    c    0.194300 *  0.075500 *  0.465200 *   4.00000    1.000000    
    406 Si    c    0.645800 *  0.076100 *  0.250700 *   4.00000    1.000000    
    407 O     c    0.389400 *  0.167300 *  0.454600 *   0.86902    1.000000    
    408 O     c    0.369400 *  0.222200 *  0.459300 *   0.86902    1.000000    
    409 O     c    0.388900 *  0.277300 *  0.454600 *   0.86902    1.000000    
    410 O     c    0.406700 *  0.332800 *  0.460500 *   0.86902    1.000000    
    411 O     c    0.406300 *  0.888600 *  0.461100 *   0.86902    1.000000    
    412 O     c    0.889600 *  0.444500 *  0.954300 *   0.86902    1.000000    
    413 O     c    0.389500 *  0.314200 *  0.180900 *   0.86902    1.000000    
    414 O     c    0.221800 *  0.295700 *  0.349500 *   0.86902    1.000000    
    415 O     c    0.315500 *  0.261500 *  0.389200 *   0.86902    1.000000    
    416 O     c    0.429900 *  0.221600 *  0.296500 *   0.86902    1.000000    
    417 O     c    0.445000 *  0.666900 *  0.823100 *   0.86902    1.000000    
    418 O     c    0.445200 *  0.667700 *  0.733000 *   0.86902    1.000000    
    419 O     c    0.222900 *  0.065800 *  0.333600 *   0.86902    1.000000    
    420 O     c    0.166500 *  0.054600 *  0.544400 *   0.86902    1.000000    
    421 O     c    0.065700 *  0.222000 *  0.555700 *   0.86902    1.000000    
    422 O     c    0.333900 *  0.221800 *  0.155900 *   0.86902    1.000000    
    423 O     c    0.888900 *  0.258900 *  0.651600 *   0.86902    1.000000    
    424 O     c    0.929700 *  0.389000 *  0.758300 *   0.86902    1.000000    
    425 O     c    0.459200 *  0.110100 *  0.815000 *   0.86902    1.000000    
    426 O     c    0.720800 *  0.655500 *  0.943900 *   0.86902    1.000000    
    427 Si    c    0.645900 *  0.250000 *  0.854100 *   4.00000    1.000000    
    428 Si    c    0.076100 *  0.750000 *  0.423900 *   4.00000    1.000000    
    429 O     c    0.647000 *  0.181400 *  0.500000 *   0.86902    1.000000    
    430 O     c    0.203500 *  0.070100 *  0.500000 *   0.86902    1.000000    
    431 O     c    0.425400 *  0.152900 *  0.500000 *   0.86902    1.000000    
    432 O     c    0.352600 *  0.263000 *  0.500000 *   0.86902    1.000000    
    433 O     c    0.425000 *  0.291500 *  0.500000 *   0.86902    1.000000    
    434 O     c    0.426400 *  0.373200 *  0.500000 *   0.86902    1.000000    
    435 O     c    0.925200 *  0.430200 *  0.000000 *   0.86902    1.000000    
    436 O     c    0.853900 *  0.459300 *  0.000000 *   0.86902    1.000000    
    437 O     c    0.500000 *  0.149500 *  0.795800 *   0.86902    1.000000    
    438 O     c    0.946200 *  0.430800 *  0.946200 *   0.86902    1.000000    
    439 O     c    0.445900 *  0.153900 *  0.445900 *   0.86902    1.000000    
    440 O     c    0.445800 *  0.289900 *  0.445800 *   0.86902    1.000000    
    441 O     c    0.444900 *  0.376500 *  0.444900 *   0.86902    1.000000    
    442 O     c    0.334000 *  0.265400 *  0.334000 *   0.86902    1.000000    
    443 O     c    0.664300 *  0.664300 *  0.957700 *   0.86902    1.000000    
    444 O     c    0.335200 *  0.335200 *  0.179000 *   0.86902    1.000000    
    445 O     c    0.275600 *  0.275600 *  0.431800 *   0.86902    1.000000    
    446 O     c    0.387700 *  0.387700 *  0.456400 *   0.86902    1.000000    
    447 O     c    0.345800 *  0.276900 *  0.276900 *   0.86902    1.000000    
    448 O     c    0.871000 *  0.500000 *  0.959400 *   0.86902    1.000000    
    449 Si    c    0.534500 *  0.853900 *  0.583400 *   4.00000    1.000000    
    450 Si    c    0.534900 *  0.812700 *  0.638800 *   4.00000    1.000000    
    451 Si    c    0.534900 *  0.742900 *  0.639200 *   4.00000    1.000000    
    452 Si    c    0.534700 *  0.701900 *  0.583500 *   4.00000    1.000000    
    453 Si    c    0.534500 *  0.632500 *  0.583600 *   4.00000    1.000000    
    454 Si    c    0.034600 *  0.576800 *  0.083400 *   4.00000    1.000000    
    455 Si    c    0.034900 *  0.534800 *  0.137900 *   4.00000    1.000000    
    456 Si    c    0.812900 *  0.694300 *  0.645300 *   4.00000    1.000000    
    457 Si    c    0.694800 *  0.743700 *  0.576200 *   4.00000    1.000000    
    458 Si    c    0.743600 *  0.694500 *  0.645400 *   4.00000    1.000000    
    459 Si    c    0.575800 *  0.694800 *  0.813300 *   4.00000    1.000000    
    460 Si    c    0.644800 *  0.965400 *  0.693800 *   4.00000    1.000000    
    461 Si    c    0.534800 *  0.924500 *  0.805700 *   4.00000    1.000000    
    462 Si    c    0.749300 *  0.923900 *  0.354200 *   4.00000    1.000000    
    463 O     c    0.545400 *  0.832700 *  0.610600 *   0.86902    1.000000    
    464 O     c    0.540700 *  0.777800 *  0.630600 *   0.86902    1.000000    
    465 O     c    0.545400 *  0.722700 *  0.611100 *   0.86902    1.000000    
    466 O     c    0.539500 *  0.667200 *  0.593300 *   0.86902    1.000000    
    467 O     c    0.538900 *  0.111400 *  0.593700 *   0.86902    1.000000    
    468 O     c    0.045700 *  0.555500 *  0.110400 *   0.86902    1.000000    
    469 O     c    0.819100 *  0.685800 *  0.610500 *   0.86902    1.000000    
    470 O     c    0.650500 *  0.704300 *  0.778200 *   0.86902    1.000000    
    471 O     c    0.610800 *  0.738500 *  0.684500 *   0.86902    1.000000    
    472 O     c    0.703500 *  0.778400 *  0.570100 *   0.86902    1.000000    
    473 O     c    0.176900 *  0.333100 *  0.555000 *   0.86902    1.000000    
    474 O     c    0.267000 *  0.332300 *  0.554800 *   0.86902    1.000000    
    475 O     c    0.666400 *  0.934200 *  0.777100 *   0.86902    1.000000    
    476 O     c    0.455600 *  0.945400 *  0.833500 *   0.86902    1.000000    
    477 O     c    0.444300 *  0.778000 *  0.934300 *   0.86902    1.000000    
    478 O     c    0.844100 *  0.778200 *  0.666100 *   0.86902    1.000000    
    479 O     c    0.348400 *  0.741100 *  0.111100 *   0.86902    1.000000    
    480 O     c    0.241700 *  0.611000 *  0.070300 *   0.86902    1.000000    
    481 O     c    0.185000 *  0.889900 *  0.540800 *   0.86902    1.000000    
    482 O     c    0.056100 *  0.344500 *  0.279200 *   0.86902    1.000000    
    483 Si    c    0.145900 *  0.750000 *  0.354100 *   4.00000    1.000000    
    484 Si    c    0.576100 *  0.250000 *  0.923900 *   4.00000    1.000000    
    485 O     c    0.500000 *  0.818600 *  0.353000 *   0.86902    1.000000    
    486 O     c    0.500000 *  0.929900 *  0.796500 *   0.86902    1.000000    
    487 O     c    0.500000 *  0.847100 *  0.574600 *   0.86902    1.000000    
    488 O     c    0.500000 *  0.737000 *  0.647400 *   0.86902    1.000000    
    489 O     c    0.500000 *  0.708500 *  0.575000 *   0.86902    1.000000    
    490 O     c    0.500000 *  0.626800 *  0.573600 *   0.86902    1.000000    
    491 O     c    0.000000 *  0.569800 *  0.074800 *   0.86902    1.000000    
    492 O     c    0.000000 *  0.540700 *  0.146100 *   0.86902    1.000000    
    493 O     c    0.204200 *  0.850500 *  0.500000 *   0.86902    1.000000    
    494 O     c    0.053800 *  0.569200 *  0.053800 *   0.86902    1.000000    
    495 O     c    0.554100 *  0.846100 *  0.554100 *   0.86902    1.000000    
    496 O     c    0.554200 *  0.710100 *  0.554200 *   0.86902    1.000000    
    497 O     c    0.555100 *  0.623500 *  0.555100 *   0.86902    1.000000    
    498 O     c    0.666000 *  0.734600 *  0.666000 *   0.86902    1.000000    
    499 O     c    0.042300 *  0.335700 *  0.335700 *   0.86902    1.000000    
    500 O     c    0.821000 *  0.664800 *  0.664800 *   0.86902    1.000000    
    501 O     c    0.568200 *  0.724400 *  0.724400 *   0.86902    1.000000    
    502 O     c    0.543600 *  0.612300 *  0.612300 *   0.86902    1.000000    
    503 O     c    0.723100 *  0.723100 *  0.654200 *   0.86902    1.000000    
    504 O     c    0.040600 *  0.500000 *  0.129000 *   0.86902    1.000000    
    505 Si    c    0.146100 *  0.534500 *  0.583400 *   4.00000    1.000000    
    506 Si    c    0.187300 *  0.534900 *  0.638800 *   4.00000    1.000000    
    507 Si    c    0.257100 *  0.534900 *  0.639200 *   4.00000    1.000000    
    508 Si    c    0.298100 *  0.534700 *  0.583500 *   4.00000    1.000000    
    509 Si    c    0.367500 *  0.534500 *  0.583600 *   4.00000    1.000000    
    510 Si    c    0.423200 *  0.034600 *  0.083400 *   4.00000    1.000000    
    511 Si    c    0.465200 *  0.034900 *  0.137900 *   4.00000    1.000000    
    512 Si    c    0.305700 *  0.812900 *  0.645300 *   4.00000    1.000000    
    513 Si    c    0.256300 *  0.694800 *  0.576200 *   4.00000    1.000000    
    514 Si    c    0.305500 *  0.743600 *  0.645400 *   4.00000    1.000000    
    515 Si    c    0.305200 *  0.575800 *  0.813300 *   4.00000    1.000000    
    516 Si    c    0.034600 *  0.644800 *  0.693800 *   4.00000    1.000000    
    517 Si    c    0.075500 *  0.534800 *  0.805700 *   4.00000    1.000000    
    518 Si    c    0.076100 *  0.749300 *  0.354200 *   4.00000    1.000000    
    519 O     c    0.167300 *  0.545400 *  0.610600 *   0.86902    1.000000    
    520 O     c    0.222200 *  0.540700 *  0.630600 *   0.86902    1.000000    
    521 O     c    0.277300 *  0.545400 *  0.611100 *   0.86902    1.000000    
    522 O     c    0.332800 *  0.539500 *  0.593300 *   0.86902    1.000000    
    523 O     c    0.888600 *  0.538900 *  0.593700 *   0.86902    1.000000    
    524 O     c    0.444500 *  0.045700 *  0.110400 *   0.86902    1.000000    
    525 O     c    0.314200 *  0.819100 *  0.610500 *   0.86902    1.000000    
    526 O     c    0.295700 *  0.650500 *  0.778200 *   0.86902    1.000000    
    527 O     c    0.261500 *  0.610800 *  0.684500 *   0.86902    1.000000    
    528 O     c    0.221600 *  0.703500 *  0.570100 *   0.86902    1.000000    
    529 O     c    0.666900 *  0.176900 *  0.555000 *   0.86902    1.000000    
    530 O     c    0.667700 *  0.267000 *  0.554800 *   0.86902    1.000000    
    531 O     c    0.065800 *  0.666400 *  0.777100 *   0.86902    1.000000    
    532 O     c    0.054600 *  0.455600 *  0.833500 *   0.86902    1.000000    
    533 O     c    0.222000 *  0.444300 *  0.934300 *   0.86902    1.000000    
    534 O     c    0.221800 *  0.844100 *  0.666100 *   0.86902    1.000000    
    535 O     c    0.258900 *  0.348400 *  0.111100 *   0.86902    1.000000    
    536 O     c    0.389000 *  0.241700 *  0.070300 *   0.86902    1.000000    
    537 O     c    0.110100 *  0.185000 *  0.540800 *   0.86902    1.000000    
    538 O     c    0.655500 *  0.056100 *  0.279200 *   0.86902    1.000000    
    539 Si    c    0.250000 *  0.145900 *  0.354100 *   4.00000    1.000000    
    540 Si    c    0.750000 *  0.576100 *  0.923900 *   4.00000    1.000000    
    541 O     c    0.181400 *  0.500000 *  0.353000 *   0.86902    1.000000    
    542 O     c    0.070100 *  0.500000 *  0.796500 *   0.86902    1.000000    
    543 O     c    0.152900 *  0.500000 *  0.574600 *   0.86902    1.000000    
    544 O     c    0.263000 *  0.500000 *  0.647400 *   0.86902    1.000000    
    545 O     c    0.291500 *  0.500000 *  0.575000 *   0.86902    1.000000    
    546 O     c    0.373200 *  0.500000 *  0.573600 *   0.86902    1.000000    
    547 O     c    0.430200 *  0.000000 *  0.074800 *   0.86902    1.000000    
    548 O     c    0.459300 *  0.000000 *  0.146100 *   0.86902    1.000000    
    549 O     c    0.149500 *  0.204200 *  0.500000 *   0.86902    1.000000    
    550 O     c    0.430800 *  0.053800 *  0.053800 *   0.86902    1.000000    
    551 O     c    0.153900 *  0.554100 *  0.554100 *   0.86902    1.000000    
    552 O     c    0.289900 *  0.554200 *  0.554200 *   0.86902    1.000000    
    553 O     c    0.376500 *  0.555100 *  0.555100 *   0.86902    1.000000    
    554 O     c    0.265400 *  0.666000 *  0.666000 *   0.86902    1.000000    
    555 O     c    0.664300 *  0.042300 *  0.335700 *   0.86902    1.000000    
    556 O     c    0.335200 *  0.821000 *  0.664800 *   0.86902    1.000000    
    557 O     c    0.275600 *  0.568200 *  0.724400 *   0.86902    1.000000    
    558 O     c    0.387700 *  0.543600 *  0.612300 *   0.86902    1.000000    
    559 O     c    0.276900 *  0.723100 *  0.654200 *   0.86902    1.000000    
    560 O     c    0.500000 *  0.040600 *  0.129000 *   0.86902    1.000000    
    561 Si    c    0.465500 *  0.146100 *  0.583400 *   4.00000    1.000000    
    562 Si    c    0.465100 *  0.187300 *  0.638800 *   4.00000    1.000000    
    563 Si    c    0.465100 *  0.257100 *  0.639200 *   4.00000    1.000000    
    564 Si    c    0.465300 *  0.298100 *  0.583500 *   4.00000    1.000000    
    565 Si    c    0.465500 *  0.367500 *  0.583600 *   4.00000    1.000000    
    566 Si    c    0.965400 *  0.423200 *  0.083400 *   4.00000    1.000000    
    567 Si    c    0.965100 *  0.465200 *  0.137900 *   4.00000    1.000000    
    568 Si    c    0.187100 *  0.305700 *  0.645300 *   4.00000    1.000000    
    569 Si    c    0.305200 *  0.256300 *  0.576200 *   4.00000    1.000000    
    570 Si    c    0.256400 *  0.305500 *  0.645400 *   4.00000    1.000000    
    571 Si    c    0.424200 *  0.305200 *  0.813300 *   4.00000    1.000000    
    572 Si    c    0.355200 *  0.034600 *  0.693800 *   4.00000    1.000000    
    573 Si    c    0.465200 *  0.075500 *  0.805700 *   4.00000    1.000000    
    574 Si    c    0.250700 *  0.076100 *  0.354200 *   4.00000    1.000000    
    575 O     c    0.454600 *  0.167300 *  0.610600 *   0.86902    1.000000    
    576 O     c    0.459300 *  0.222200 *  0.630600 *   0.86902    1.000000    
    577 O     c    0.454600 *  0.277300 *  0.611100 *   0.86902    1.000000    
    578 O     c    0.460500 *  0.332800 *  0.593300 *   0.86902    1.000000    
    579 O     c    0.461100 *  0.888600 *  0.593700 *   0.86902    1.000000    
    580 O     c    0.954300 *  0.444500 *  0.110400 *   0.86902    1.000000    
    581 O     c    0.180900 *  0.314200 *  0.610500 *   0.86902    1.000000    
    582 O     c    0.349500 *  0.295700 *  0.778200 *   0.86902    1.000000    
    583 O     c    0.389200 *  0.261500 *  0.684500 *   0.86902    1.000000    
    584 O     c    0.296500 *  0.221600 *  0.570100 *   0.86902    1.000000    
    585 O     c    0.823100 *  0.666900 *  0.555000 *   0.86902    1.000000    
    586 O     c    0.733000 *  0.667700 *  0.554800 *   0.86902    1.000000    
    587 O     c    0.333600 *  0.065800 *  0.777100 *   0.86902    1.000000    
    588 O     c    0.544400 *  0.054600 *  0.833500 *   0.86902    1.000000    
    589 O     c    0.555700 *  0.222000 *  0.934300 *   0.86902    1.000000    
    590 O     c    0.155900 *  0.221800 *  0.666100 *   0.86902    1.000000    
    591 O     c    0.651600 *  0.258900 *  0.111100 *   0.86902    1.000000    
    592 O     c    0.758300 *  0.389000 *  0.070300 *   0.86902    1.000000    
    593 O     c    0.815000 *  0.110100 *  0.540800 *   0.86902    1.000000    
    594 O     c    0.943900 *  0.655500 *  0.279200 *   0.86902    1.000000    
    595 Si    c    0.854100 *  0.250000 *  0.354100 *   4.00000    1.000000    
    596 Si    c    0.423900 *  0.750000 *  0.923900 *   4.00000    1.000000    
    597 O     c    0.500000 *  0.181400 *  0.353000 *   0.86902    1.000000    
    598 O     c    0.500000 *  0.070100 *  0.796500 *   0.86902    1.000000    
    599 O     c    0.500000 *  0.152900 *  0.574600 *   0.86902    1.000000    
    600 O     c    0.500000 *  0.263000 *  0.647400 *   0.86902    1.000000    
    601 O     c    0.500000 *  0.291500 *  0.575000 *   0.86902    1.000000    
    602 O     c    0.500000 *  0.373200 *  0.573600 *   0.86902    1.000000    
    603 O     c    0.000000 *  0.430200 *  0.074800 *   0.86902    1.000000    
    604 O     c    0.000000 *  0.459300 *  0.146100 *   0.86902    1.000000    
    605 O     c    0.795800 *  0.149500 *  0.500000 *   0.86902    1.000000    
    606 O     c    0.946200 *  0.430800 *  0.053800 *   0.86902    1.000000    
    607 O     c    0.445900 *  0.153900 *  0.554100 *   0.86902    1.000000    
    608 O     c    0.445800 *  0.289900 *  0.554200 *   0.86902    1.000000    
    609 O     c    0.444900 *  0.376500 *  0.555100 *   0.86902    1.000000    
    610 O     c    0.334000 *  0.265400 *  0.666000 *   0.86902    1.000000    
    611 O     c    0.957700 *  0.664300 *  0.335700 *   0.86902    1.000000    
    612 O     c    0.179000 *  0.335200 *  0.664800 *   0.86902    1.000000    
    613 O     c    0.431800 *  0.275600 *  0.724400 *   0.86902    1.000000    
    614 O     c    0.456400 *  0.387700 *  0.612300 *   0.86902    1.000000    
    615 O     c    0.276900 *  0.276900 *  0.654200 *   0.86902    1.000000    
    616 O     c    0.959400 *  0.500000 *  0.129000 *   0.86902    1.000000    
    617 Si    c    0.853900 *  0.465500 *  0.583400 *   4.00000    1.000000    
    618 Si    c    0.812700 *  0.465100 *  0.638800 *   4.00000    1.000000    
    619 Si    c    0.742900 *  0.465100 *  0.639200 *   4.00000    1.000000    
    620 Si    c    0.701900 *  0.465300 *  0.583500 *   4.00000    1.000000    
    621 Si    c    0.632500 *  0.465500 *  0.583600 *   4.00000    1.000000    
    622 Si    c    0.576800 *  0.965400 *  0.083400 *   4.00000    1.000000    
    623 Si    c    0.534800 *  0.965100 *  0.137900 *   4.00000    1.000000    
    624 Si    c    0.694300 *  0.187100 *  0.645300 *   4.00000    1.000000    
    625 Si    c    0.743700 *  0.305200 *  0.576200 *   4.00000    1.000000    
    626 Si    c    0.694500 *  0.256400 *  0.645400 *   4.00000    1.000000    
    627 Si    c    0.694800 *  0.424200 *  0.813300 *   4.00000    1.000000    
    628 Si    c    0.965400 *  0.355200 *  0.693800 *   4.00000    1.000000    
    629 Si    c    0.924500 *  0.465200 *  0.805700 *   4.00000    1.000000    
    630 Si    c    0.923900 *  0.250700 *  0.354200 *   4.00000    1.000000    
    631 O     c    0.832700 *  0.454600 *  0.610600 *   0.86902    1.000000    
    632 O     c    0.777800 *  0.459300 *  0.630600 *   0.86902    1.000000    
    633 O     c    0.722700 *  0.454600 *  0.611100 *   0.86902    1.000000    
    634 O     c    0.667200 *  0.460500 *  0.593300 *   0.86902    1.000000    
    635 O     c    0.111400 *  0.461100 *  0.593700 *   0.86902    1.000000    
    636 O     c    0.555500 *  0.954300 *  0.110400 *   0.86902    1.000000    
    637 O     c    0.685800 *  0.180900 *  0.610500 *   0.86902    1.000000    
    638 O     c    0.704300 *  0.349500 *  0.778200 *   0.86902    1.000000    
    639 O     c    0.738500 *  0.389200 *  0.684500 *   0.86902    1.000000    
    640 O     c    0.778400 *  0.296500 *  0.570100 *   0.86902    1.000000    
    641 O     c    0.333100 *  0.823100 *  0.555000 *   0.86902    1.000000    
    642 O     c    0.332300 *  0.733000 *  0.554800 *   0.86902    1.000000    
    643 O     c    0.934200 *  0.333600 *  0.777100 *   0.86902    1.000000    
    644 O     c    0.945400 *  0.544400 *  0.833500 *   0.86902    1.000000    
    645 O     c    0.778000 *  0.555700 *  0.934300 *   0.86902    1.000000    
    646 O     c    0.778200 *  0.155900 *  0.666100 *   0.86902    1.000000    
    647 O     c    0.741100 *  0.651600 *  0.111100 *   0.86902    1.000000    
    648 O     c    0.611000 *  0.758300 *  0.070300 *   0.86902    1.000000    
    649 O     c    0.889900 *  0.815000 *  0.540800 *   0.86902    1.000000    
    650 O     c    0.344500 *  0.943900 *  0.279200 *   0.86902    1.000000    
    651 Si    c    0.750000 *  0.854100 *  0.354100 *   4.00000    1.000000    
    652 Si    c    0.250000 *  0.423900 *  0.923900 *   4.00000    1.000000    
    653 O     c    0.818600 *  0.500000 *  0.353000 *   0.86902    1.000000    
    654 O     c    0.929900 *  0.500000 *  0.796500 *   0.86902    1.000000    
    655 O     c    0.847100 *  0.500000 *  0.574600 *   0.86902    1.000000    
    656 O     c    0.737000 *  0.500000 *  0.647400 *   0.86902    1.000000    
    657 O     c    0.708500 *  0.500000 *  0.575000 *   0.86902    1.000000    
    658 O     c    0.626800 *  0.500000 *  0.573600 *   0.86902    1.000000    
    659 O     c    0.569800 *  0.000000 *  0.074800 *   0.86902    1.000000    
    660 O     c    0.540700 *  0.000000 *  0.146100 *   0.86902    1.000000    
    661 O     c    0.850500 *  0.795800 *  0.500000 *   0.86902    1.000000    
    662 O     c    0.569200 *  0.946200 *  0.053800 *   0.86902    1.000000    
    663 O     c    0.846100 *  0.445900 *  0.554100 *   0.86902    1.000000    
    664 O     c    0.710100 *  0.445800 *  0.554200 *   0.86902    1.000000    
    665 O     c    0.623500 *  0.444900 *  0.555100 *   0.86902    1.000000    
    666 O     c    0.734600 *  0.334000 *  0.666000 *   0.86902    1.000000    
    667 O     c    0.335700 *  0.957700 *  0.335700 *   0.86902    1.000000    
    668 O     c    0.664800 *  0.179000 *  0.664800 *   0.86902    1.000000    
    669 O     c    0.724400 *  0.431800 *  0.724400 *   0.86902    1.000000    
    670 O     c    0.612300 *  0.456400 *  0.612300 *   0.86902    1.000000    
    671 O     c    0.723100 *  0.276900 *  0.654200 *   0.86902    1.000000    
    672 O     c    0.500000 *  0.959400 *  0.129000 *   0.86902    1.000000    
    673 Si    c    0.534500 *  0.146100 *  0.416600 *   4.00000    1.000000    
    674 Si    c    0.534900 *  0.187300 *  0.361200 *   4.00000    1.000000    
    675 Si    c    0.534900 *  0.257100 *  0.360800 *   4.00000    1.000000    
    676 Si    c    0.534700 *  0.298100 *  0.416500 *   4.00000    1.000000    
    677 Si    c    0.534500 *  0.367500 *  0.416400 *   4.00000    1.000000    
    678 Si    c    0.034600 *  0.423200 *  0.916600 *   4.00000    1.000000    
    679 Si    c    0.034900 *  0.465200 *  0.862100 *   4.00000    1.000000    
    680 Si    c    0.812900 *  0.305700 *  0.354700 *   4.00000    1.000000    
    681 Si    c    0.694800 *  0.256300 *  0.423800 *   4.00000    1.000000    
    682 Si    c    0.743600 *  0.305500 *  0.354600 *   4.00000    1.000000    
    683 Si    c    0.575800 *  0.305200 *  0.186700 *   4.00000    1.000000    
    684 Si    c    0.644800 *  0.034600 *  0.306200 *   4.00000    1.000000    
    685 Si    c    0.534800 *  0.075500 *  0.194300 *   4.00000    1.000000    
    686 Si    c    0.749300 *  0.076100 *  0.645800 *   4.00000    1.000000    
    687 O     c    0.545400 *  0.167300 *  0.389400 *   0.86902    1.000000    
    688 O     c    0.540700 *  0.222200 *  0.369400 *   0.86902    1.000000    
    689 O     c    0.545400 *  0.277300 *  0.388900 *   0.86902    1.000000    
    690 O     c    0.539500 *  0.332800 *  0.406700 *   0.86902    1.000000    
    691 O     c    0.538900 *  0.888600 *  0.406300 *   0.86902    1.000000    
    692 O     c    0.045700 *  0.444500 *  0.889600 *   0.86902    1.000000    
    693 O     c    0.819100 *  0.314200 *  0.389500 *   0.86902    1.000000    
    694 O     c    0.650500 *  0.295700 *  0.221800 *   0.86902    1.000000    
    695 O     c    0.610800 *  0.261500 *  0.315500 *   0.86902    1.000000    
    696 O     c    0.703500 *  0.221600 *  0.429900 *   0.86902    1.000000    
    697 O     c    0.176900 *  0.666900 *  0.445000 *   0.86902    1.000000    
    698 O     c    0.267000 *  0.667700 *  0.445200 *   0.86902    1.000000    
    699 O     c    0.666400 *  0.065800 *  0.222900 *   0.86902    1.000000    
    700 O     c    0.455600 *  0.054600 *  0.166500 *   0.86902    1.000000    
    701 O     c    0.444300 *  0.222000 *  0.065700 *   0.86902    1.000000    
    702 O     c    0.844100 *  0.221800 *  0.333900 *   0.86902    1.000000    
    703 O     c    0.348400 *  0.258900 *  0.888900 *   0.86902    1.000000    
    704 O     c    0.241700 *  0.389000 *  0.929700 *   0.86902    1.000000    
    705 O     c    0.185000 *  0.110100 *  0.459200 *   0.86902    1.000000    
    706 O     c    0.056100 *  0.655500 *  0.720800 *   0.86902    1.000000    
    707 Si    c    0.145900 *  0.250000 *  0.645900 *   4.00000    1.000000    
    708 Si    c    0.576100 *  0.750000 *  0.076100 *   4.00000    1.000000    
    709 O     c    0.500000 *  0.181400 *  0.647000 *   0.86902    1.000000    
    710 O     c    0.500000 *  0.070100 *  0.203500 *   0.86902    1.000000    
    711 O     c    0.500000 *  0.152900 *  0.425400 *   0.86902    1.000000    
    712 O     c    0.500000 *  0.263000 *  0.352600 *   0.86902    1.000000    
    713 O     c    0.500000 *  0.291500 *  0.425000 *   0.86902    1.000000    
    714 O     c    0.500000 *  0.373200 *  0.426400 *   0.86902    1.000000    
    715 O     c    0.000000 *  0.430200 *  0.925200 *   0.86902    1.000000    
    716 O     c    0.000000 *  0.459300 *  0.853900 *   0.86902    1.000000    
    717 O     c    0.204200 *  0.149500 *  0.500000 *   0.86902    1.000000    
    718 O     c    0.053800 *  0.430800 *  0.946200 *   0.86902    1.000000    
    719 O     c    0.554100 *  0.153900 *  0.445900 *   0.86902    1.000000    
    720 O     c    0.554200 *  0.289900 *  0.445800 *   0.86902    1.000000    
    721 O     c    0.555100 *  0.376500 *  0.444900 *   0.86902    1.000000    
    722 O     c    0.666000 *  0.265400 *  0.334000 *   0.86902    1.000000    
    723 O     c    0.042300 *  0.664300 *  0.664300 *   0.86902    1.000000    
    724 O     c    0.821000 *  0.335200 *  0.335200 *   0.86902    1.000000    
    725 O     c    0.568200 *  0.275600 *  0.275600 *   0.86902    1.000000    
    726 O     c    0.543600 *  0.387700 *  0.387700 *   0.86902    1.000000    
    727 O     c    0.723100 *  0.276900 *  0.345800 *   0.86902    1.000000    
    728 O     c    0.040600 *  0.500000 *  0.871000 *   0.86902    1.000000    
    729 Si    c    0.853900 *  0.534500 *  0.416600 *   4.00000    1.000000    
    730 Si    c    0.812700 *  0.534900 *  0.361200 *   4.00000    1.000000    
    731 Si    c    0.742900 *  0.534900 *  0.360800 *   4.00000    1.000000    
    732 Si    c    0.701900 *  0.534700 *  0.416500 *   4.00000    1.000000    
    733 Si    c    0.632500 *  0.534500 *  0.416400 *   4.00000    1.000000    
    734 Si    c    0.576800 *  0.034600 *  0.916600 *   4.00000    1.000000    
    735 Si    c    0.534800 *  0.034900 *  0.862100 *   4.00000    1.000000    
    736 Si    c    0.694300 *  0.812900 *  0.354700 *   4.00000    1.000000    
    737 Si    c    0.743700 *  0.694800 *  0.423800 *   4.00000    1.000000    
    738 Si    c    0.694500 *  0.743600 *  0.354600 *   4.00000    1.000000    
    739 Si    c    0.694800 *  0.575800 *  0.186700 *   4.00000    1.000000    
    740 Si    c    0.965400 *  0.644800 *  0.306200 *   4.00000    1.000000    
    741 Si    c    0.924500 *  0.534800 *  0.194300 *   4.00000    1.000000    
    742 Si    c    0.923900 *  0.749300 *  0.645800 *   4.00000    1.000000    
    743 O     c    0.832700 *  0.545400 *  0.389400 *   0.86902    1.000000    
    744 O     c    0.777800 *  0.540700 *  0.369400 *   0.86902    1.000000    
    745 O     c    0.722700 *  0.545400 *  0.388900 *   0.86902    1.000000    
    746 O     c    0.667200 *  0.539500 *  0.406700 *   0.86902    1.000000    
    747 O     c    0.111400 *  0.538900 *  0.406300 *   0.86902    1.000000    
    748 O     c    0.555500 *  0.045700 *  0.889600 *   0.86902    1.000000    
    749 O     c    0.685800 *  0.819100 *  0.389500 *   0.86902    1.000000    
    750 O     c    0.704300 *  0.650500 *  0.221800 *   0.86902    1.000000    
    751 O     c    0.738500 *  0.610800 *  0.315500 *   0.86902    1.000000    
    752 O     c    0.778400 *  0.703500 *  0.429900 *   0.86902    1.000000    
    753 O     c    0.333100 *  0.176900 *  0.445000 *   0.86902    1.000000    
    754 O     c    0.332300 *  0.267000 *  0.445200 *   0.86902    1.000000    
    755 O     c    0.934200 *  0.666400 *  0.222900 *   0.86902    1.000000    
    756 O     c    0.945400 *  0.455600 *  0.166500 *   0.86902    1.000000    
    757 O     c    0.778000 *  0.444300 *  0.065700 *   0.86902    1.000000    
    758 O     c    0.778200 *  0.844100 *  0.333900 *   0.86902    1.000000    
    759 O     c    0.741100 *  0.348400 *  0.888900 *   0.86902    1.000000    
    760 O     c    0.611000 *  0.241700 *  0.929700 *   0.86902    1.000000    
    761 O     c    0.889900 *  0.185000 *  0.459200 *   0.86902    1.000000    
    762 O     c    0.344500 *  0.056100 *  0.720800 *   0.86902    1.000000    
    763 Si    c    0.750000 *  0.145900 *  0.645900 *   4.00000    1.000000    
    764 Si    c    0.250000 *  0.576100 *  0.076100 *   4.00000    1.000000    
    765 O     c    0.818600 *  0.500000 *  0.647000 *   0.86902    1.000000    
    766 O     c    0.929900 *  0.500000 *  0.203500 *   0.86902    1.000000    
    767 O     c    0.847100 *  0.500000 *  0.425400 *   0.86902    1.000000    
    768 O     c    0.737000 *  0.500000 *  0.352600 *   0.86902    1.000000    
    769 O     c    0.708500 *  0.500000 *  0.425000 *   0.86902    1.000000    
    770 O     c    0.626800 *  0.500000 *  0.426400 *   0.86902    1.000000    
    771 O     c    0.569800 *  0.000000 *  0.925200 *   0.86902    1.000000    
    772 O     c    0.540700 *  0.000000 *  0.853900 *   0.86902    1.000000    
    773 O     c    0.850500 *  0.204200 *  0.500000 *   0.86902    1.000000    
    774 O     c    0.569200 *  0.053800 *  0.946200 *   0.86902    1.000000    
    775 O     c    0.846100 *  0.554100 *  0.445900 *   0.86902    1.000000    
    776 O     c    0.710100 *  0.554200 *  0.445800 *   0.86902    1.000000    
    777 O     c    0.623500 *  0.555100 *  0.444900 *   0.86902    1.000000    
    778 O     c    0.734600 *  0.666000 *  0.334000 *   0.86902    1.000000    
    779 O     c    0.335700 *  0.042300 *  0.664300 *   0.86902    1.000000    
    780 O     c    0.664800 *  0.821000 *  0.335200 *   0.86902    1.000000    
    781 O     c    0.724400 *  0.568200 *  0.275600 *   0.86902    1.000000    
    782 O     c    0.612300 *  0.543600 *  0.387700 *   0.86902    1.000000    
    783 O     c    0.723100 *  0.723100 *  0.345800 *   0.86902    1.000000    
    784 O     c    0.500000 *  0.040600 *  0.871000 *   0.86902    1.000000    
    785 Si    c    0.465500 *  0.853900 *  0.416600 *   4.00000    1.000000    
    786 Si    c    0.465100 *  0.812700 *  0.361200 *   4.00000    1.000000    
    787 Si    c    0.465100 *  0.742900 *  0.360800 *   4.00000    1.000000    
    788 Si    c    0.465300 *  0.701900 *  0.416500 *   4.00000    1.000000    
    789 Si    c    0.465500 *  0.632500 *  0.416400 *   4.00000    1.000000    
    790 Si    c    0.965400 *  0.576800 *  0.916600 *   4.00000    1.000000    
    791 Si    c    0.965100 *  0.534800 *  0.862100 *   4.00000    1.000000    
    792 Si    c    0.187100 *  0.694300 *  0.354700 *   4.00000    1.000000    
    793 Si    c    0.305200 *  0.743700 *  0.423800 *   4.00000    1.000000    
    794 Si    c    0.256400 *  0.694500 *  0.354600 *   4.00000    1.000000    
    795 Si    c    0.424200 *  0.694800 *  0.186700 *   4.00000    1.000000    
    796 Si    c    0.355200 *  0.965400 *  0.306200 *   4.00000    1.000000    
    797 Si    c    0.465200 *  0.924500 *  0.194300 *   4.00000    1.000000    
    798 Si    c    0.250700 *  0.923900 *  0.645800 *   4.00000    1.000000    
    799 O     c    0.454600 *  0.832700 *  0.389400 *   0.86902    1.000000    
    800 O     c    0.459300 *  0.777800 *  0.369400 *   0.86902    1.000000    
    801 O     c    0.454600 *  0.722700 *  0.388900 *   0.86902    1.000000    
    802 O     c    0.460500 *  0.667200 *  0.406700 *   0.86902    1.000000    
    803 O     c    0.461100 *  0.111400 *  0.406300 *   0.86902    1.000000    
    804 O     c    0.954300 *  0.555500 *  0.889600 *   0.86902    1.000000    
    805 O     c    0.180900 *  0.685800 *  0.389500 *   0.86902    1.000000    
    806 O     c    0.349500 *  0.704300 *  0.221800 *   0.86902    1.000000    
    807 O     c    0.389200 *  0.738500 *  0.315500 *   0.86902    1.000000    
    808 O     c    0.296500 *  0.778400 *  0.429900 *   0.86902    1.000000    
    809 O     c    0.823100 *  0.333100 *  0.445000 *   0.86902    1.000000    
    810 O     c    0.733000 *  0.332300 *  0.445200 *   0.86902    1.000000    
    811 O     c    0.333600 *  0.934200 *  0.222900 *   0.86902    1.000000    
    812 O     c    0.544400 *  0.945400 *  0.166500 *   0.86902    1.000000    
    813 O     c    0.555700 *  0.778000 *  0.065700 *   0.86902    1.000000    
    814 O     c    0.155900 *  0.778200 *  0.333900 *   0.86902    1.000000    
    815 O     c    0.651600 *  0.741100 *  0.888900 *   0.86902    1.000000    
    816 O     c    0.758300 *  0.611000 *  0.929700 *   0.86902    1.000000    
    817 O     c    0.815000 *  0.889900 *  0.459200 *   0.86902    1.000000    
    818 O     c    0.943900 *  0.344500 *  0.720800 *   0.86902    1.000000    
    819 Si    c    0.854100 *  0.750000 *  0.645900 *   4.00000    1.000000    
    820 Si    c    0.423900 *  0.250000 *  0.076100 *   4.00000    1.000000    
    821 O     c    0.500000 *  0.818600 *  0.647000 *   0.86902    1.000000    
    822 O     c    0.500000 *  0.929900 *  0.203500 *   0.86902    1.000000    
    823 O     c    0.500000 *  0.847100 *  0.425400 *   0.86902    1.000000    
    824 O     c    0.500000 *  0.737000 *  0.352600 *   0.86902    1.000000    
    825 O     c    0.500000 *  0.708500 *  0.425000 *   0.86902    1.000000    
    826 O     c    0.500000 *  0.626800 *  0.426400 *   0.86902    1.000000    
    827 O     c    0.000000 *  0.569800 *  0.925200 *   0.86902    1.000000    
    828 O     c    0.000000 *  0.540700 *  0.853900 *   0.86902    1.000000    
    829 O     c    0.795800 *  0.850500 *  0.500000 *   0.86902    1.000000    
    830 O     c    0.946200 *  0.569200 *  0.946200 *   0.86902    1.000000    
    831 O     c    0.445900 *  0.846100 *  0.445900 *   0.86902    1.000000    
    832 O     c    0.445800 *  0.710100 *  0.445800 *   0.86902    1.000000    
    833 O     c    0.444900 *  0.623500 *  0.444900 *   0.86902    1.000000    
    834 O     c    0.334000 *  0.734600 *  0.334000 *   0.86902    1.000000    
    835 O     c    0.957700 *  0.335700 *  0.664300 *   0.86902    1.000000    
    836 O     c    0.179000 *  0.664800 *  0.335200 *   0.86902    1.000000    
    837 O     c    0.431800 *  0.724400 *  0.275600 *   0.86902    1.000000    
    838 O     c    0.456400 *  0.612300 *  0.387700 *   0.86902    1.000000    
    839 O     c    0.276900 *  0.723100 *  0.345800 *   0.86902    1.000000    
    840 O     c    0.959400 *  0.500000 *  0.871000 *   0.86902    1.000000    
    841 Si    c    0.146100 *  0.465500 *  0.416600 *   4.00000    1.000000    
    842 Si    c    0.187300 *  0.465100 *  0.361200 *   4.00000    1.000000    
    843 Si    c    0.257100 *  0.465100 *  0.360800 *   4.00000    1.000000    
    844 Si    c    0.298100 *  0.465300 *  0.416500 *   4.00000    1.000000    
    845 Si    c    0.367500 *  0.465500 *  0.416400 *   4.00000    1.000000    
    846 Si    c    0.423200 *  0.965400 *  0.916600 *   4.00000    1.000000    
    847 Si    c    0.465200 *  0.965100 *  0.862100 *   4.00000    1.000000    
    848 Si    c    0.305700 *  0.187100 *  0.354700 *   4.00000    1.000000    
    849 Si    c    0.256300 *  0.305200 *  0.423800 *   4.00000    1.000000    
    850 Si    c    0.305500 *  0.256400 *  0.354600 *   4.00000    1.000000    
    851 Si    c    0.305200 *  0.424200 *  0.186700 *   4.00000    1.000000    
    852 Si    c    0.034600 *  0.355200 *  0.306200 *   4.00000    1.000000    
    853 Si    c    0.075500 *  0.465200 *  0.194300 *   4.00000    1.000000    
    854 Si    c    0.076100 *  0.250700 *  0.645800 *   4.00000    1.000000    
    855 O     c    0.167300 *  0.454600 *  0.389400 *   0.86902    1.000000    
    856 O     c    0.222200 *  0.459300 *  0.369400 *   0.86902    1.000000    
    857 O     c    0.277300 *  0.454600 *  0.388900 *   0.86902    1.000000    
    858 O     c    0.332800 *  0.460500 *  0.406700 *   0.86902    1.000000    
    859 O     c    0.888600 *  0.461100 *  0.406300 *   0.86902    1.000000    
    860 O     c    0.444500 *  0.954300 *  0.889600 *   0.86902    1.000000    
    861 O     c    0.314200 *  0.180900 *  0.389500 *   0.86902    1.000000    
    862 O     c    0.295700 *  0.349500 *  0.221800 *   0.86902    1.000000    
    863 O     c    0.261500 *  0.389200 *  0.315500 *   0.86902    1.000000    
    864 O     c    0.221600 *  0.296500 *  0.429900 *   0.86902    1.000000    
    865 O     c    0.666900 *  0.823100 *  0.445000 *   0.86902    1.000000    
    866 O     c    0.667700 *  0.733000 *  0.445200 *   0.86902    1.000000    
    867 O     c    0.065800 *  0.333600 *  0.222900 *   0.86902    1.000000    
    868 O     c    0.054600 *  0.544400 *  0.166500 *   0.86902    1.000000    
    869 O     c    0.222000 *  0.555700 *  0.065700 *   0.86902    1.000000    
    870 O     c    0.221800 *  0.155900 *  0.333900 *   0.86902    1.000000    
    871 O     c    0.258900 *  0.651600 *  0.888900 *   0.86902    1.000000    
    872 O     c    0.389000 *  0.758300 *  0.929700 *   0.86902    1.000000    
    873 O     c    0.110100 *  0.815000 *  0.459200 *   0.86902    1.000000    
    874 O     c    0.655500 *  0.943900 *  0.720800 *   0.86902    1.000000    
    875 Si    c    0.250000 *  0.854100 *  0.645900 *   4.00000    1.000000    
    876 Si    c    0.750000 *  0.423900 *  0.076100 *   4.00000    1.000000    
    877 O     c    0.181400 *  0.500000 *  0.647000 *   0.86902    1.000000    
    878 O     c    0.070100 *  0.500000 *  0.203500 *   0.86902    1.000000    
    879 O     c    0.152900 *  0.500000 *  0.425400 *   0.86902    1.000000    
    880 O     c    0.263000 *  0.500000 *  0.352600 *   0.86902    1.000000    
    881 O     c    0.291500 *  0.500000 *  0.425000 *   0.86902    1.000000    
    882 O     c    0.373200 *  0.500000 *  0.426400 *   0.86902    1.000000    
    883 O     c    0.430200 *  0.000000 *  0.925200 *   0.86902    1.000000    
    884 O     c    0.459300 *  0.000000 *  0.853900 *   0.86902    1.000000    
    885 O     c    0.149500 *  0.795800 *  0.500000 *   0.86902    1.000000    
    886 O     c    0.430800 *  0.946200 *  0.946200 *   0.86902    1.000000    
    887 O     c    0.153900 *  0.445900 *  0.445900 *   0.86902    1.000000    
    888 O     c    0.289900 *  0.445800 *  0.445800 *   0.86902    1.000000    
    889 O     c    0.376500 *  0.444900 *  0.444900 *   0.86902    1.000000    
    890 O     c    0.265400 *  0.334000 *  0.334000 *   0.86902    1.000000    
    891 O     c    0.664300 *  0.957700 *  0.664300 *   0.86902    1.000000    
    892 O     c    0.335200 *  0.179000 *  0.335200 *   0.86902    1.000000    
    893 O     c    0.275600 *  0.431800 *  0.275600 *   0.86902    1.000000    
    894 O     c    0.387700 *  0.456400 *  0.387700 *   0.86902    1.000000    
    895 O     c    0.276900 *  0.276900 *  0.345800 *   0.86902    1.000000    
    896 O     c    0.500000 *  0.959400 *  0.871000 *   0.86902    1.000000    
    897 Si    c    0.583400 *  0.534500 *  0.853900 *   4.00000    1.000000    
    898 Si    c    0.638800 *  0.534900 *  0.812700 *   4.00000    1.000000    
    899 Si    c    0.639200 *  0.534900 *  0.742900 *   4.00000    1.000000    
    900 Si    c    0.583500 *  0.534700 *  0.701900 *   4.00000    1.000000    
    901 Si    c    0.583600 *  0.534500 *  0.632500 *   4.00000    1.000000    
    902 Si    c    0.083400 *  0.034600 *  0.576800 *   4.00000    1.000000    
    903 Si    c    0.137900 *  0.034900 *  0.534800 *   4.00000    1.000000    
    904 Si    c    0.645300 *  0.812900 *  0.694300 *   4.00000    1.000000    
    905 Si    c    0.576200 *  0.694800 *  0.743700 *   4.00000    1.000000    
    906 Si    c    0.645400 *  0.743600 *  0.694500 *   4.00000    1.000000    
    907 Si    c    0.813300 *  0.575800 *  0.694800 *   4.00000    1.000000    
    908 Si    c    0.693800 *  0.644800 *  0.965400 *   4.00000    1.000000    
    909 Si    c    0.805700 *  0.534800 *  0.924500 *   4.00000    1.000000    
    910 Si    c    0.354200 *  0.749300 *  0.923900 *   4.00000    1.000000    
    911 O     c    0.610600 *  0.545400 *  0.832700 *   0.86902    1.000000    
    912 O     c    0.630600 *  0.540700 *  0.777800 *   0.86902    1.000000    
    913 O     c    0.611100 *  0.545400 *  0.722700 *   0.86902    1.000000    
    914 O     c    0.593300 *  0.539500 *  0.667200 *   0.86902    1.000000    
    915 O     c    0.593700 *  0.538900 *  0.111400 *   0.86902    1.000000    
    916 O     c    0.110400 *  0.045700 *  0.555500 *   0.86902    1.000000    
    917 O     c    0.610500 *  0.819100 *  0.685800 *   0.86902    1.000000    
    918 O     c    0.778200 *  0.650500 *  0.704300 *   0.86902    1.000000    
    919 O     c    0.684500 *  0.610800 *  0.738500 *   0.86902    1.000000    
    920 O     c    0.570100 *  0.703500 *  0.778400 *   0.86902    1.000000    
    921 O     c    0.555000 *  0.176900 *  0.333100 *   0.86902    1.000000    
    922 O     c    0.554800 *  0.267000 *  0.332300 *   0.86902    1.000000    
    923 O     c    0.777100 *  0.666400 *  0.934200 *   0.86902    1.000000    
    924 O     c    0.833500 *  0.455600 *  0.945400 *   0.86902    1.000000    
    925 O     c    0.934300 *  0.444300 *  0.778000 *   0.86902    1.000000    
    926 O     c    0.666100 *  0.844100 *  0.778200 *   0.86902    1.000000    
    927 O     c    0.111100 *  0.348400 *  0.741100 *   0.86902    1.000000    
    928 O     c    0.070300 *  0.241700 *  0.611000 *   0.86902    1.000000    
    929 O     c    0.540800 *  0.185000 *  0.889900 *   0.86902    1.000000    
    930 O     c    0.279200 *  0.056100 *  0.344500 *   0.86902    1.000000    
    931 Si    c    0.354100 *  0.145900 *  0.750000 *   4.00000    1.000000    
    932 Si    c    0.923900 *  0.576100 *  0.250000 *   4.00000    1.000000    
    933 O     c    0.353000 *  0.500000 *  0.818600 *   0.86902    1.000000    
    934 O     c    0.796500 *  0.500000 *  0.929900 *   0.86902    1.000000    
    935 O     c    0.574600 *  0.500000 *  0.847100 *   0.86902    1.000000    
    936 O     c    0.647400 *  0.500000 *  0.737000 *   0.86902    1.000000    
    937 O     c    0.575000 *  0.500000 *  0.708500 *   0.86902    1.000000    
    938 O     c    0.573600 *  0.500000 *  0.626800 *   0.86902    1.000000    
    939 O     c    0.074800 *  0.000000 *  0.569800 *   0.86902    1.000000    
    940 O     c    0.146100 *  0.000000 *  0.540700 *   0.86902    1.000000    
    941 O     c    0.500000 *  0.204200 *  0.850500 *   0.86902    1.000000    
    942 O     c    0.053800 *  0.053800 *  0.569200 *   0.86902    1.000000    
    943 O     c    0.554100 *  0.554100 *  0.846100 *   0.86902    1.000000    
    944 O     c    0.554200 *  0.554200 *  0.710100 *   0.86902    1.000000    
    945 O     c    0.555100 *  0.555100 *  0.623500 *   0.86902    1.000000    
    946 O     c    0.666000 *  0.666000 *  0.734600 *   0.86902    1.000000    
    947 O     c    0.335700 *  0.042300 *  0.335700 *   0.86902    1.000000    
    948 O     c    0.664800 *  0.821000 *  0.664800 *   0.86902    1.000000    
    949 O     c    0.724400 *  0.568200 *  0.724400 *   0.86902    1.000000    
    950 O     c    0.612300 *  0.543600 *  0.612300 *   0.86902    1.000000    
    951 O     c    0.654200 *  0.723100 *  0.723100 *   0.86902    1.000000    
    952 O     c    0.129000 *  0.040600 *  0.500000 *   0.86902    1.000000    
    953 Si    c    0.583400 *  0.465500 *  0.146100 *   4.00000    1.000000    
    954 Si    c    0.638800 *  0.465100 *  0.187300 *   4.00000    1.000000    
    955 Si    c    0.639200 *  0.465100 *  0.257100 *   4.00000    1.000000    
    956 Si    c    0.583500 *  0.465300 *  0.298100 *   4.00000    1.000000    
    957 Si    c    0.583600 *  0.465500 *  0.367500 *   4.00000    1.000000    
    958 Si    c    0.083400 *  0.965400 *  0.423200 *   4.00000    1.000000    
    959 Si    c    0.137900 *  0.965100 *  0.465200 *   4.00000    1.000000    
    960 Si    c    0.645300 *  0.187100 *  0.305700 *   4.00000    1.000000    
    961 Si    c    0.576200 *  0.305200 *  0.256300 *   4.00000    1.000000    
    962 Si    c    0.645400 *  0.256400 *  0.305500 *   4.00000    1.000000    
    963 Si    c    0.813300 *  0.424200 *  0.305200 *   4.00000    1.000000    
    964 Si    c    0.693800 *  0.355200 *  0.034600 *   4.00000    1.000000    
    965 Si    c    0.805700 *  0.465200 *  0.075500 *   4.00000    1.000000    
    966 Si    c    0.354200 *  0.250700 *  0.076100 *   4.00000    1.000000    
    967 O     c    0.610600 *  0.454600 *  0.167300 *   0.86902    1.000000    
    968 O     c    0.630600 *  0.459300 *  0.222200 *   0.86902    1.000000    
[...]
   6949 O     s      -0.000105      0.000012     -0.000171      0.000000
   6950 O     s       0.000036     -0.000200     -0.000066      0.000000
   6951 O     s       0.000015      0.000238     -0.000047      0.000000
   6952 O     s       0.000057     -0.000242     -0.000027      0.000000
   6953 O     s       0.000244     -0.000003     -0.000034      0.000000
   6954 O     s       0.000102      0.000221     -0.000019      0.000000
   6955 O     s      -0.000035      0.000037      0.000254      0.000000
   6956 O     s      -0.000003      0.000247      0.000009      0.000000
   6957 O     s      -0.000128      0.000024      0.000021      0.000000
   6958 O     s      -0.000001      0.000065      0.000013      0.000000
   6959 O     s       0.000007      0.000127      0.000076      0.000000
   6960 O     s      -0.000241     -0.000056      0.000022      0.000000
   6961 O     s       0.000256      0.000065     -0.000054      0.000000
   6962 O     s      -0.000045      0.000021      0.000060      0.000000
   6963 O     s       0.000254      0.000012     -0.000077      0.000000
   6964 O     s       0.000097     -0.000009     -0.000172      0.000000
   6965 O     s       0.000059      0.000043     -0.000231      0.000000
   6966 O     s       0.000213      0.000023     -0.000121      0.000000
   6967 O     s       0.000092      0.000175      0.000081      0.000000
   6968 O     s       0.000092     -0.000141     -0.000037      0.000000
   6969 O     s      -0.000062      0.000110      0.000168      0.000000
   6970 O     s       0.000202     -0.000099      0.000064      0.000000
   6971 O     s      -0.000232     -0.000064      0.000020      0.000000
   6972 O     s       0.000241     -0.000018      0.000053      0.000000
   6973 O     s       0.000035     -0.000238      0.000081      0.000000
   6974 O     s      -0.000209     -0.000139      0.000066      0.000000
   6975 O     s      -0.000003      0.000072     -0.000250      0.000000
   6976 O     s      -0.000234     -0.000123     -0.000006      0.000000
   6977 O     s      -0.000029      0.000127     -0.000066      0.000000
   6978 O     s      -0.000065     -0.000054     -0.000007      0.000000
   6979 O     s      -0.000122     -0.000079     -0.000082      0.000000
   6980 O     s       0.000028      0.000243      0.000016      0.000000
   6981 O     s      -0.000028      0.000248     -0.000092      0.000000
   6982 O     s       0.000038     -0.000049      0.000062      0.000000
   6983 O     s       0.000017      0.000257     -0.000036      0.000000
   6984 O     s       0.000046      0.000095     -0.000167      0.000000
   6985 O     s       0.000019      0.000051     -0.000231      0.000000
   6986 O     s       0.000015      0.000189     -0.000174      0.000000
   6987 O     s      -0.000178      0.000069      0.000169      0.000000
   6988 O     s       0.000144      0.000098     -0.000081      0.000000
   6989 O     s      -0.000102     -0.000015      0.000173      0.000000
   6990 O     s       0.000039      0.000206      0.000068      0.000000
   6991 O     s       0.000020     -0.000235      0.000050      0.000000
   6992 O     s       0.000053      0.000238      0.000027      0.000000
   6993 O     s       0.000248     -0.000003      0.000031      0.000000
   6994 O     s       0.000087     -0.000223     -0.000018      0.000000
   6995 O     s      -0.000019     -0.000034     -0.000252      0.000000
   6996 O     s      -0.000013     -0.000250     -0.000005      0.000000
   6997 O     s      -0.000128     -0.000025     -0.000021      0.000000
   6998 O     s      -0.000003     -0.000066     -0.000011      0.000000
   6999 O     s      -0.000066     -0.000183     -0.000064      0.000000
   7000 O     s      -0.000242      0.000056     -0.000026      0.000000
   7001 O     s      -0.000256     -0.000062     -0.000059      0.000000
   7002 O     s       0.000046     -0.000012      0.000059      0.000000
   7003 O     s      -0.000255     -0.000008     -0.000073      0.000000
   7004 O     s      -0.000098      0.000012     -0.000171      0.000000
   7005 O     s      -0.000060     -0.000046     -0.000230      0.000000
   7006 O     s      -0.000211     -0.000025     -0.000126      0.000000
   7007 O     s      -0.000067     -0.000184      0.000113      0.000000
   7008 O     s      -0.000096      0.000146     -0.000044      0.000000
   7009 O     s       0.000059     -0.000112      0.000170      0.000000
   7010 O     s      -0.000205      0.000081      0.000070      0.000000
   7011 O     s       0.000228      0.000065      0.000021      0.000000
   7012 O     s      -0.000243      0.000008      0.000075      0.000000
   7013 O     s      -0.000033      0.000237      0.000076      0.000000
   7014 O     s       0.000209      0.000138      0.000064      0.000000
   7015 O     s       0.000004     -0.000074     -0.000251      0.000000
   7016 O     s       0.000248      0.000035      0.000021      0.000000
   7017 O     s       0.000028     -0.000127     -0.000066      0.000000
   7018 O     s       0.000064      0.000054     -0.000007      0.000000
   7019 O     s       0.000120      0.000068     -0.000079      0.000000
   7020 O     s      -0.000024     -0.000244      0.000019      0.000000
   7021 O     s       0.000022     -0.000247     -0.000114      0.000000
   7022 O     s      -0.000046      0.000059      0.000050      0.000000
   7023 O     s      -0.000025     -0.000262     -0.000044      0.000000
   7024 O     s      -0.000043     -0.000101     -0.000170      0.000000
   7025 O     s      -0.000021     -0.000048     -0.000249      0.000000
   7026 O     s      -0.000014     -0.000189     -0.000175      0.000000
   7027 O     s       0.000179     -0.000070      0.000169      0.000000
   7028 O     s      -0.000145     -0.000098     -0.000077      0.000000
   7029 O     s       0.000111      0.000013      0.000181      0.000000
   7030 O     s      -0.000045     -0.000213      0.000076      0.000000
   7031 O     s      -0.000019      0.000236      0.000050      0.000000
   7032 O     s      -0.000056     -0.000240      0.000026      0.000000
   7033 O     s      -0.000238     -0.000003      0.000042      0.000000
   7034 O     s      -0.000097      0.000219      0.000028      0.000000
   7035 O     s       0.000033      0.000041     -0.000256      0.000000
   7036 O     s       0.000020      0.000255     -0.000008      0.000000
   7037 O     s       0.000129      0.000026     -0.000026      0.000000
   7038 O     s       0.000001      0.000064     -0.000012      0.000000
   7039 O     s      -0.000010      0.000126     -0.000079      0.000000
   7040 O     s       0.000240     -0.000055     -0.000028      0.000000
   7041 O     s       0.000059      0.000257     -0.000062      0.000000
   7042 O     s      -0.000060     -0.000047     -0.000012      0.000000
   7043 O     s       0.000071      0.000257     -0.000008      0.000000
   7044 O     s       0.000170      0.000097      0.000011      0.000000
   7045 O     s       0.000237      0.000062     -0.000047      0.000000
   7046 O     s       0.000106      0.000220     -0.000032      0.000000
   7047 O     s      -0.000113      0.000070     -0.000184      0.000000
   7048 O     s       0.000043      0.000095      0.000144      0.000000
   7049 O     s      -0.000174     -0.000061     -0.000113      0.000000
   7050 O     s      -0.000069      0.000203      0.000081      0.000000
   7051 O     s      -0.000013     -0.000232      0.000071      0.000000
   7052 O     s      -0.000053      0.000242      0.000009      0.000000
   7053 O     s      -0.000079      0.000035      0.000235      0.000000
   7054 O     s      -0.000067     -0.000211      0.000145      0.000000
   7055 O     s       0.000250      0.000001     -0.000076      0.000000
   7056 O     s      -0.000018     -0.000248      0.000034      0.000000
   7057 O     s       0.000072     -0.000029     -0.000126      0.000000
   7058 O     s      -0.000004     -0.000074      0.000057      0.000000
   7059 O     s       0.000084     -0.000124      0.000065      0.000000
   7060 O     s      -0.000019      0.000016     -0.000237      0.000000
   7061 O     s       0.000051     -0.000260      0.000067      0.000000
   7062 O     s      -0.000062      0.000042      0.000015      0.000000
   7063 O     s       0.000075     -0.000252      0.000010      0.000000
   7064 O     s       0.000173     -0.000098     -0.000011      0.000000
   7065 O     s       0.000232     -0.000058      0.000046      0.000000
   7066 O     s       0.000129     -0.000213      0.000024      0.000000
   7067 O     s      -0.000102     -0.000069      0.000189      0.000000
   7068 O     s       0.000033     -0.000099     -0.000142      0.000000
   7069 O     s      -0.000171      0.000071      0.000113      0.000000
   7070 O     s      -0.000072     -0.000206     -0.000088      0.000000
   7071 O     s      -0.000020      0.000232     -0.000060      0.000000
   7072 O     s      -0.000051     -0.000241     -0.000017      0.000000
   7073 O     s      -0.000079     -0.000034     -0.000235      0.000000
   7074 O     s      -0.000063      0.000209     -0.000140      0.000000
   7075 O     s       0.000252     -0.000010      0.000077      0.000000
   7076 O     s      -0.000023      0.000248     -0.000036      0.000000
   7077 O     s       0.000067      0.000026      0.000125      0.000000
   7078 O     s       0.000004      0.000065     -0.000056      0.000000
   7079 O     s       0.000085      0.000124     -0.000066      0.000000
   7080 O     s      -0.000014     -0.000028      0.000241      0.000000
   7081 O     s       0.000248      0.000100      0.000029      0.000000
   7082 O     s      -0.000051     -0.000058     -0.000034      0.000000
   7083 O     s       0.000258      0.000043     -0.000019      0.000000
   7084 O     s       0.000101      0.000173     -0.000042      0.000000
   7085 O     s       0.000052      0.000233     -0.000015      0.000000
   7086 O     s       0.000194      0.000178     -0.000029      0.000000
   7087 O     s       0.000063     -0.000171      0.000174      0.000000
   7088 O     s       0.000096      0.000079     -0.000141      0.000000
   7089 O     s      -0.000015     -0.000176      0.000108      0.000000
   7090 O     s       0.000208     -0.000067     -0.000040      0.000000
   7091 O     s      -0.000236     -0.000051     -0.000018      0.000000
   7092 O     s       0.000239     -0.000029     -0.000055      0.000000
   7093 O     s       0.000004     -0.000039     -0.000241      0.000000
   7094 O     s      -0.000220     -0.000023     -0.000104      0.000000
   7095 O     s      -0.000035      0.000255      0.000033      0.000000
   7096 O     s      -0.000254      0.000004      0.000011      0.000000
   7097 O     s      -0.000027      0.000023      0.000127      0.000000
   7098 O     s      -0.000071      0.000010      0.000011      0.000000
   7099 O     s      -0.000131      0.000084     -0.000011      0.000000
   7100 O     s       0.000055      0.000021      0.000245      0.000000
   7101 O     s      -0.000058      0.000256      0.000061      0.000000
   7102 O     s       0.000062     -0.000043      0.000014      0.000000
   7103 O     s      -0.000075      0.000254      0.000009      0.000000
   7104 O     s      -0.000173      0.000099     -0.000009      0.000000
   7105 O     s      -0.000231      0.000057      0.000042      0.000000
   7106 O     s      -0.000121      0.000213      0.000024      0.000000
   7107 O     s       0.000115      0.000068      0.000184      0.000000
   7108 O     s      -0.000041      0.000092     -0.000142      0.000000
   7109 O     s       0.000174     -0.000060      0.000114      0.000000
   7110 O     s       0.000072      0.000205     -0.000083      0.000000
   7111 O     s       0.000017     -0.000229     -0.000063      0.000000
   7112 O     s       0.000052      0.000240     -0.000016      0.000000
   7113 O     s       0.000076      0.000036     -0.000236      0.000000
   7114 O     s       0.000069     -0.000209     -0.000143      0.000000
   7115 O     s      -0.000253      0.000000      0.000092      0.000000
   7116 O     s       0.000018     -0.000248     -0.000031      0.000000
   7117 O     s      -0.000075     -0.000010      0.000139      0.000000
   7118 O     s      -0.000197      0.000294     -0.000416      0.000000
   7119 O     s      -0.000082     -0.000123     -0.000065      0.000000
   7120 O     s       0.000014      0.000034      0.000242      0.000000
   7121 O     s      -0.000248     -0.000101      0.000028      0.000000
   7122 O     s       0.000054      0.000056     -0.000037      0.000000
   7123 O     s      -0.000258     -0.000044     -0.000020      0.000000
   7124 O     s      -0.000100     -0.000173     -0.000044      0.000000
   7125 O     s      -0.000052     -0.000233     -0.000016      0.000000
   7126 O     s      -0.000187     -0.000174     -0.000018      0.000000
   7127 O     s      -0.000065      0.000176      0.000166      0.000000
   7128 O     s      -0.000098     -0.000082     -0.000142      0.000000
   7129 O     s       0.000015      0.000176      0.000107      0.000000
   7130 O     s      -0.000207      0.000070     -0.000038      0.000000
   7131 O     s       0.000234      0.000044     -0.000019      0.000000
   7132 O     s      -0.000239      0.000022     -0.000054      0.000000
   7133 O     s      -0.000005      0.000035     -0.000242      0.000000
   7134 O     s       0.000221      0.000024     -0.000101      0.000000
   7135 O     s       0.000036     -0.000256      0.000030      0.000000
   7136 O     s       0.000246     -0.000011      0.000009      0.000000
   7137 O     s       0.000025     -0.000024      0.000125      0.000000
   7138 O     s       0.000071     -0.000011      0.000008      0.000000
   7139 O     s       0.000117     -0.000071      0.000005      0.000000
   7140 O     s      -0.000054     -0.000027      0.000239      0.000000
   7141 O     s      -0.000059     -0.000258     -0.000061      0.000000
   7142 O     s       0.000061      0.000047     -0.000011      0.000000
   7143 O     s      -0.000072     -0.000257     -0.000008      0.000000
   7144 O     s      -0.000171     -0.000098      0.000012      0.000000
   7145 O     s      -0.000233     -0.000060     -0.000044      0.000000
   7146 O     s      -0.000114     -0.000227     -0.000037      0.000000
   7147 O     s       0.000113     -0.000069     -0.000184      0.000000
   7148 O     s      -0.000043     -0.000095      0.000144      0.000000
   7149 O     s       0.000172      0.000059     -0.000111      0.000000
   7150 O     s       0.000070     -0.000205      0.000082      0.000000
   7151 O     s       0.000020      0.000232      0.000061      0.000000
   7152 O     s       0.000051     -0.000241      0.000016      0.000000
   7153 O     s       0.000078     -0.000034      0.000236      0.000000
   7154 O     s       0.000062      0.000211      0.000136      0.000000
   7155 O     s      -0.000251      0.000002     -0.000076      0.000000
   7156 O     s       0.000019      0.000246      0.000032      0.000000
   7157 O     s      -0.000069      0.000032     -0.000127      0.000000
   7158 O     s      -0.000007      0.000068      0.000060      0.000000
   7159 O     s      -0.000082      0.000123      0.000063      0.000000
   7160 O     s       0.000021     -0.000023     -0.000240      0.000000
   7161 O     s       0.000250     -0.000096     -0.000029      0.000000
   7162 O     s      -0.000051      0.000059      0.000034      0.000000
   7163 O     s       0.000261     -0.000040      0.000019      0.000000
   7164 O     s       0.000100     -0.000170      0.000042      0.000000
   7165 O     s       0.000053     -0.000234      0.000021      0.000000
   7166 O     s       0.000188     -0.000186      0.000017      0.000000
   7167 O     s       0.000069      0.000170     -0.000177      0.000000
   7168 O     s       0.000096     -0.000082      0.000136      0.000000
   7169 O     s      -0.000017      0.000177     -0.000108      0.000000
   7170 O     s       0.000206      0.000067      0.000045      0.000000
   7171 O     s      -0.000236      0.000055     -0.000000      0.000000
   7172 O     s       0.000237      0.000027      0.000066      0.000000
   7173 O     s       0.000006      0.000038      0.000242      0.000000
   7174 O     s      -0.000221      0.000023      0.000103      0.000000
   7175 O     s      -0.000035     -0.000253     -0.000034      0.000000
   7176 O     s      -0.000251     -0.000006     -0.000010      0.000000
   7177 O     s      -0.000028     -0.000026     -0.000128      0.000000
   7178 O     s      -0.000064     -0.000011     -0.000001      0.000000
   7179 O     s      -0.000126     -0.000078      0.000017      0.000000
   7180 O     s       0.000059     -0.000021     -0.000240      0.000000
   7181 O     s      -0.000251      0.000096     -0.000030      0.000000
   7182 O     s       0.000053     -0.000058      0.000034      0.000000
   7183 O     s      -0.000261      0.000042      0.000019      0.000000
   7184 O     s      -0.000100      0.000169      0.000043      0.000000
   7185 O     s      -0.000054      0.000234      0.000015      0.000000
   7186 O     s      -0.000141      0.000216      0.000076      0.000000
   7187 O     s      -0.000073     -0.000165     -0.000177      0.000000
   7188 O     s      -0.000098      0.000077      0.000142      0.000000
   7189 O     s       0.000019     -0.000176     -0.000108      0.000000
   7190 O     s      -0.000207     -0.000068      0.000044      0.000000
   7191 O     s       0.000239     -0.000046      0.000014      0.000000
   7192 O     s      -0.000241     -0.000021      0.000059      0.000000
   7193 O     s      -0.000007     -0.000040      0.000241      0.000000
   7194 O     s       0.000221     -0.000024      0.000103      0.000000
   7195 O     s       0.000037      0.000255     -0.000036      0.000000
   7196 O     s       0.000249      0.000005     -0.000003      0.000000
   7197 O     s       0.000027      0.000019     -0.000129      0.000000
   7198 O     s       0.000055      0.000016     -0.000011      0.000000
   7199 O     s       0.000127      0.000080      0.000011      0.000000
   7200 O     s      -0.000305      0.000055      0.000065      0.000000
--------------------------------------------------------------------------------
  Maximum abs         0.000743      0.000466      0.000811      0.000000
--------------------------------------------------------------------------------


  Time to end of optimisation =   11864.8014 seconds


  Peak dynamic memory used =    1443.51 MB 


  Timing analysis for GULP :

--------------------------------------------------------------------------------
  Task / Subroutine                                          Time (Seconds)
--------------------------------------------------------------------------------
  Calculation of reciprocal space energy and derivatives       1041.9978
  Calculation of real space energy and derivatives              491.7320
  Calculation of three-body energy and derivatives               67.1824
  Calculation and manipulation of Hessian matrix               4627.6567
  Calculation of matrix inversion                              5617.9514
  Symmetry generation of equivalent positions                     0.0825
  Global summation overhead                                       6.1735
--------------------------------------------------------------------------------
  Total CPU time                                              11864.8021
--------------------------------------------------------------------------------


  Dump file written as ReferenceDataBase/RHOG4-ZSM-25.grs
  CIF file written as ReferenceDataBase/RHOG4-ZSM-25_opt.cif


  Job Finished at 17:48.41 20th April      2023                               

