********************************************************************************
*                       GENERAL UTILITY LATTICE PROGRAM                        *
*                                 Julian Gale                                  *
*                       Curtin Institute for Computation                       *
*                    School of Molecular and Life Sciences                     *
*                    Curtin University, Western Australia                      *
********************************************************************************
* Version = 6.1.2 * Last modified =   3rd November 2022                        *
********************************************************************************
*  optimise     - perform optimisation run                                     *
*  conp         - constant pressure calculation                                *
*  nosymmetry   - turn off symmetry after initial structure generation         *
********************************************************************************

  Job Started  at 14:15.14 20th April      2023                               

  Number of CPUs =     8


  Total number of configurations input =      1

********************************************************************************
*  Input for Configuration =   1 : ReferenceDataBase/ZEO-5                     *
********************************************************************************

  Formula = Si96O192                                                    

  Number of irreducible atoms/shells =     480


  Total number atoms/shells =     480

  Dimensionality = 3               :  Bulk   



  Cartesian lattice vectors (Angstroms) :

       25.466600    0.000000    0.000000
        0.021057   24.926691    0.000000
       -3.622670   -0.013800   13.933554

  Cell parameters (Angstroms/Degrees):

  a =      25.4666    alpha =  90.0671
  b =      24.9267    beta  = 104.5740
  c =      14.3968    gamma =  89.9516

  Initial cell volume =        8844.993149 Angs**3

  Temperature of configuration =   0.00     K 

  Pressure of configuration =         0.000 GPa 

  Fractional coordinates of asymmetric unit :

--------------------------------------------------------------------------------
   No.  Atomic       x           y          z         Charge      Occupancy
        Label      (Frac)      (Frac)     (Frac)        (e)         (Frac)  
--------------------------------------------------------------------------------
      1 Si    c    0.421699 *  0.487728 *  0.626807 *   4.00000    1.000000    
      2 Si    c    0.617363 *  0.445070 *  0.684830 *   4.00000    1.000000    
      3 Si    c    0.435945 *  0.390916 *  0.378373 *   4.00000    1.000000    
      4 Si    c    0.502552 *  0.399777 *  0.590226 *   4.00000    1.000000    
      5 Si    c    0.354836 *  0.478636 *  0.415388 *   4.00000    1.000000    
      6 Si    c    0.301355 *  0.358990 *  0.658912 *   4.00000    1.000000    
      7 Si    c    0.361930 *  0.305226 *  0.412518 *   4.00000    1.000000    
      8 Si    c    0.383303 *  0.270333 *  0.623614 *   4.00000    1.000000    
      9 Si    c    0.279721 *  0.393973 *  0.447861 *   4.00000    1.000000    
     10 O     c    0.341971 *  0.529615 *  0.346220 *   0.86902    1.000000    
     11 O     c    0.483034 *  0.393470 *  0.476179 *   0.86902    1.000000    
     12 O     c    0.384847 *  0.497940 *  0.521307 *   0.86902    1.000000    
     13 O     c    0.407802 *  0.332075 *  0.368557 *   0.86902    1.000000    
     14 O     c    0.393127 *  0.438292 *  0.375665 *   0.86902    1.000000    
     15 O     c    0.460334 *  0.397777 *  0.287319 *   0.86902    1.000000    
     16 O     c    0.462617 *  0.438379 *  0.629964 *   0.86902    1.000000    
     17 O     c    0.323939 *  0.352386 *  0.431697 *   0.86902    1.000000    
     18 O     c    0.661297 *  0.397757 *  0.715589 *   0.86902    1.000000    
     19 O     c    0.562393 *  0.424156 *  0.613265 *   0.86902    1.000000    
     20 O     c    0.296809 *  0.451976 *  0.416174 *   0.86902    1.000000    
     21 O     c    0.442251 *  0.269742 *  0.696426 *   0.86902    1.000000    
     22 O     c    0.281930 *  0.392953 *  0.560748 *   0.86902    1.000000    
     23 O     c    0.605335 *  0.470204 *  0.779896 *   0.86902    1.000000    
     24 O     c    0.454560 *  0.541870 *  0.658824 *   0.86902    1.000000    
     25 O     c    0.490620 *  0.345004 *  0.817470 *   0.86902    1.000000    
     26 O     c    0.350004 *  0.319571 *  0.652181 *   0.86902    1.000000    
     27 O     c    0.249490 *  0.325356 *  0.678205 *   0.86902    1.000000    
     28 O     c    0.388608 *  0.277780 *  0.514918 *   0.86902    1.000000    
     29 O     c    0.325864 *  0.261270 *  0.337295 *   0.86902    1.000000    
     30 Si    c    0.271186 *  0.780147 *  0.856516 *   4.00000    1.000000    
     31 O     c    0.278203 *  0.794352 *  0.967092 *   0.86902    1.000000    
     32 Si    c    0.922402 *  0.989725 *  0.619264 *   4.00000    1.000000    
     33 Si    c    0.118401 *  0.943021 *  0.676299 *   4.00000    1.000000    
     34 Si    c    0.936414 *  0.887204 *  0.375417 *   4.00000    1.000000    
     35 Si    c    0.002783 *  0.900230 *  0.588749 *   4.00000    1.000000    
     36 Si    c    0.856598 *  0.976413 *  0.407159 *   4.00000    1.000000    
     37 Si    c    0.805010 *  0.857738 *  0.659133 *   4.00000    1.000000    
     38 Si    c    0.861996 *  0.802589 *  0.410082 *   4.00000    1.000000    
     39 Si    c    0.884218 *  0.767116 *  0.620782 *   4.00000    1.000000    
     40 Si    c    0.782322 *  0.893186 *  0.448197 *   4.00000    1.000000    
     41 O     c    0.842750 *  0.025366 *  0.333396 *   0.86902    1.000000    
     42 O     c    0.980464 *  0.891954 *  0.476059 *   0.86902    1.000000    
     43 O     c    0.889391 *  0.997429 *  0.510489 *   0.86902    1.000000    
     44 O     c    0.908310 *  0.828293 *  0.365631 *   0.86902    1.000000    
     45 O     c    0.892628 *  0.934404 *  0.365760 *   0.86902    1.000000    
     46 O     c    0.964911 *  0.892381 *  0.289013 *   0.86902    1.000000    
     47 O     c    0.970156 *  0.946184 *  0.629445 *   0.86902    1.000000    
     48 O     c    0.825989 *  0.851111 *  0.431193 *   0.86902    1.000000    
     49 O     c    0.162565 *  0.896620 *  0.713431 *   0.86902    1.000000    
     50 O     c    0.064895 *  0.917540 *  0.607175 *   0.86902    1.000000    
     51 O     c    0.799306 *  0.950952 *  0.415223 *   0.86902    1.000000    
     52 O     c    0.943693 *  0.765531 *  0.692254 *   0.86902    1.000000    
     53 O     c    0.785385 *  0.892255 *  0.561474 *   0.86902    1.000000    
     54 O     c    0.104213 *  0.974012 *  0.764382 *   0.86902    1.000000    
     55 O     c    0.947975 *  0.046831 *  0.655596 *   0.86902    1.000000    
     56 O     c    0.983713 *  0.841332 *  0.817133 *   0.86902    1.000000    
     57 O     c    0.852344 *  0.817233 *  0.650295 *   0.86902    1.000000    
     58 O     c    0.752718 *  0.825228 *  0.679440 *   0.86902    1.000000    
     59 O     c    0.888393 *  0.773933 *  0.511367 *   0.86902    1.000000    
     60 O     c    0.853594 *  0.710111 *  0.630966 *   0.86902    1.000000    
     61 O     c    0.824148 *  0.759854 *  0.334602 *   0.86902    1.000000    
     62 Si    c    0.774238 *  0.285025 *  0.861667 *   4.00000    1.000000    
     63 O     c    0.798771 *  0.318460 *  0.957894 *   0.86902    1.000000    
     64 Si    c    0.565237 *  0.489524 *  0.842701 *   4.00000    1.000000    
     65 Si    c    0.368990 *  0.443637 *  0.784084 *   4.00000    1.000000    
     66 Si    c    0.549706 *  0.387128 *  0.084908 *   4.00000    1.000000    
     67 Si    c    0.484410 *  0.399779 *  0.871176 *   4.00000    1.000000    
     68 Si    c    0.630197 *  0.476416 *  0.055311 *   4.00000    1.000000    
     69 Si    c    0.684367 *  0.358786 *  0.804987 *   4.00000    1.000000    
     70 Si    c    0.624508 *  0.302607 *  0.050174 *   4.00000    1.000000    
     71 Si    c    0.604015 *  0.268307 *  0.839036 *   4.00000    1.000000    
     72 Si    c    0.705234 *  0.393136 *  0.016206 *   4.00000    1.000000    
     73 O     c    0.643406 *  0.525530 *  0.129048 *   0.86902    1.000000    
     74 O     c    0.505794 *  0.390736 *  0.983894 *   0.86902    1.000000    
     75 O     c    0.599026 *  0.497305 *  0.951021 *   0.86902    1.000000    
     76 O     c    0.578272 *  0.328384 *  0.094909 *   0.86902    1.000000    
     77 O     c    0.593088 *  0.434650 *  0.094446 *   0.86902    1.000000    
     78 O     c    0.520972 *  0.392587 *  0.171130 *   0.86902    1.000000    
     79 O     c    0.517873 *  0.445822 *  0.833211 *   0.86902    1.000000    
     80 O     c    0.661222 *  0.350852 *  0.030731 *   0.86902    1.000000    
     81 O     c    0.323086 *  0.398791 *  0.747394 *   0.86902    1.000000    
     82 O     c    0.422285 *  0.417265 *  0.852169 *   0.86902    1.000000    
     83 O     c    0.687910 *  0.450628 *  0.050044 *   0.86902    1.000000    
     84 O     c    0.545356 *  0.267287 *  0.764999 *   0.86902    1.000000    
     85 O     c    0.765999 *  0.376282 *  0.080782 *   0.86902    1.000000    
     86 O     c    0.382896 *  0.473417 *  0.694730 *   0.86902    1.000000    
     87 O     c    0.539095 *  0.546529 *  0.807641 *   0.86902    1.000000    
     88 O     c    0.502115 *  0.342345 *  0.639749 *   0.86902    1.000000    
     89 O     c    0.636741 *  0.318390 *  0.812242 *   0.86902    1.000000    
     90 O     c    0.736874 *  0.326296 *  0.785302 *   0.86902    1.000000    
     91 O     c    0.598342 *  0.274735 *  0.947802 *   0.86902    1.000000    
     92 O     c    0.634591 *  0.211244 *  0.828559 *   0.86902    1.000000    
     93 O     c    0.661620 *  0.259199 *  0.125107 *   0.86902    1.000000    
     94 Si    c    0.714638 *  0.784545 *  0.602733 *   4.00000    1.000000    
     95 Si    c    0.066979 *  0.986302 *  0.835897 *   4.00000    1.000000    
     96 Si    c    0.871585 *  0.945012 *  0.777390 *   4.00000    1.000000    
     97 Si    c    0.050456 *  0.889484 *  0.082361 *   4.00000    1.000000    
     98 Si    c    0.985980 *  0.897868 *  0.870673 *   4.00000    1.000000    
     99 Si    c    0.131552 *  0.977873 *  0.047430 *   4.00000    1.000000    
    100 Si    c    0.186803 *  0.860170 *  0.805666 *   4.00000    1.000000    
    101 Si    c    0.125277 *  0.803438 *  0.047537 *   4.00000    1.000000    
    102 Si    c    0.104045 *  0.770050 *  0.839629 *   4.00000    1.000000    
    103 Si    c    0.207721 *  0.893124 *  0.013785 *   4.00000    1.000000    
    104 O     c    0.144443 *  0.028406 *  0.117486 *   0.86902    1.000000    
    105 O     c    0.003599 *  0.888241 *  0.984176 *   0.86902    1.000000    
    106 O     c    0.105525 *  0.997755 *  0.940015 *   0.86902    1.000000    
    107 O     c    0.083290 *  0.833269 *  0.096665 *   0.86902    1.000000    
    108 O     c    0.089813 *  0.939395 *  0.081775 *   0.86902    1.000000    
    109 O     c    0.025089 *  0.895367 *  0.172337 *   0.86902    1.000000    
    110 O     c    0.029452 *  0.934637 *  0.836672 *   0.86902    1.000000    
    111 O     c    0.170082 *  0.844644 *  0.030661 *   0.86902    1.000000    
    112 O     c    0.828753 *  0.896572 *  0.748704 *   0.86902    1.000000    
    113 O     c    0.927765 *  0.925958 *  0.847632 *   0.86902    1.000000    
    114 O     c    0.188882 *  0.948226 *  0.053499 *   0.86902    1.000000    
    115 O     c    0.047148 *  0.771050 *  0.760658 *   0.86902    1.000000    
    116 O     c    0.200539 *  0.898169 *  0.899669 *   0.86902    1.000000    
    117 O     c    0.881838 *  0.969924 *  0.680818 *   0.86902    1.000000    
    118 O     c    0.031132 *  0.038940 *  0.805522 *   0.86902    1.000000    
    119 O     c    0.996622 *  0.845050 *  0.640911 *   0.86902    1.000000    
    120 O     c    0.143011 *  0.815647 *  0.815412 *   0.86902    1.000000    
    121 O     c    0.242965 *  0.831612 *  0.794009 *   0.86902    1.000000    
    122 O     c    0.093044 *  0.781281 *  0.943635 *   0.86902    1.000000    
    123 O     c    0.131545 *  0.710422 *  0.839679 *   0.86902    1.000000    
    124 O     c    0.270669 *  0.878029 *  0.069592 *   0.86902    1.000000    
    125 O     c    0.157219 *  0.754625 *  0.115872 *   0.86902    1.000000    
    126 Si    c    0.212856 *  0.283840 *  0.601292 *   4.00000    1.000000    
    127 Si    c    0.565111 *  0.523737 *  0.343230 *   4.00000    1.000000    
    128 Si    c    0.369112 *  0.570441 *  0.286197 *   4.00000    1.000000    
    129 Si    c    0.551101 *  0.626257 *  0.587080 *   4.00000    1.000000    
    130 Si    c    0.484730 *  0.613232 *  0.373749 *   4.00000    1.000000    
    131 Si    c    0.630917 *  0.537047 *  0.555334 *   4.00000    1.000000    
    132 Si    c    0.682505 *  0.655724 *  0.303361 *   4.00000    1.000000    
    133 Si    c    0.625518 *  0.710871 *  0.552413 *   4.00000    1.000000    
    134 Si    c    0.603296 *  0.746345 *  0.341713 *   4.00000    1.000000    
    135 Si    c    0.705192 *  0.620275 *  0.514297 *   4.00000    1.000000    
    136 O     c    0.644765 *  0.488093 *  0.629095 *   0.86902    1.000000    
    137 O     c    0.507049 *  0.621508 *  0.486440 *   0.86902    1.000000    
    138 O     c    0.598124 *  0.516032 *  0.452004 *   0.86902    1.000000    
    139 O     c    0.579205 *  0.685167 *  0.596866 *   0.86902    1.000000    
    140 O     c    0.594886 *  0.579056 *  0.596733 *   0.86902    1.000000    
    141 O     c    0.522607 *  0.621079 *  0.673488 *   0.86902    1.000000    
    142 O     c    0.517355 *  0.567274 *  0.333054 *   0.86902    1.000000    
    143 O     c    0.661525 *  0.662351 *  0.531301 *   0.86902    1.000000    
    144 O     c    0.324947 *  0.616842 *  0.249066 *   0.86902    1.000000    
    145 O     c    0.422617 *  0.595924 *  0.355322 *   0.86902    1.000000    
    146 O     c    0.688209 *  0.562510 *  0.547270 *   0.86902    1.000000    
    147 O     c    0.543820 *  0.747930 *  0.270241 *   0.86902    1.000000    
    148 O     c    0.702129 *  0.621207 *  0.401020 *   0.86902    1.000000    
    149 O     c    0.383302 *  0.539453 *  0.198113 *   0.86902    1.000000    
    150 O     c    0.539541 *  0.466631 *  0.306895 *   0.86902    1.000000    
    151 O     c    0.503800 *  0.672130 *  0.145361 *   0.86902    1.000000    
    152 O     c    0.635170 *  0.696229 *  0.312200 *   0.86902    1.000000    
    153 O     c    0.734797 *  0.688233 *  0.283054 *   0.86902    1.000000    
    154 O     c    0.599121 *  0.739528 *  0.451129 *   0.86902    1.000000    
    155 O     c    0.633920 *  0.803350 *  0.331529 *   0.86902    1.000000    
    156 O     c    0.663366 *  0.753607 *  0.627893 *   0.86902    1.000000    
    157 Si    c    0.713275 *  0.228437 *  0.100831 *   4.00000    1.000000    
    158 O     c    0.752728 *  0.273069 *  0.078588 *   0.86902    1.000000    
    159 Si    c    0.065814 *  0.025734 *  0.335688 *   4.00000    1.000000    
    160 Si    c    0.870151 *  0.068394 *  0.277667 *   4.00000    1.000000    
    161 Si    c    0.051570 *  0.122545 *  0.584125 *   4.00000    1.000000    
    162 Si    c    0.984962 *  0.113684 *  0.372273 *   4.00000    1.000000    
    163 Si    c    0.132679 *  0.034826 *  0.547108 *   4.00000    1.000000    
    164 Si    c    0.186161 *  0.154471 *  0.303584 *   4.00000    1.000000    
    165 Si    c    0.125585 *  0.208235 *  0.549977 *   4.00000    1.000000    
    166 Si    c    0.104212 *  0.243127 *  0.338881 *   4.00000    1.000000    
    167 Si    c    0.207794 *  0.119487 *  0.514634 *   4.00000    1.000000    
    168 O     c    0.145543 *  0.983846 *  0.616274 *   0.86902    1.000000    
    169 O     c    0.004482 *  0.119991 *  0.486320 *   0.86902    1.000000    
    170 O     c    0.102667 *  0.015523 *  0.441188 *   0.86902    1.000000    
    171 O     c    0.079714 *  0.181387 *  0.593940 *   0.86902    1.000000    
    172 O     c    0.094389 *  0.075169 *  0.586833 *   0.86902    1.000000    
    173 O     c    0.027183 *  0.115684 *  0.675180 *   0.86902    1.000000    
    174 O     c    0.024892 *  0.075079 *  0.332532 *   0.86902    1.000000    
    175 O     c    0.163575 *  0.161075 *  0.530797 *   0.86902    1.000000    
    176 O     c    0.826216 *  0.115705 *  0.246910 *   0.86902    1.000000    
    177 O     c    0.925119 *  0.089308 *  0.349237 *   0.86902    1.000000    
    178 O     c    0.190705 *  0.061485 *  0.546321 *   0.86902    1.000000    
    179 O     c    0.045264 *  0.243718 *  0.266068 *   0.86902    1.000000    
    180 O     c    0.205585 *  0.120509 *  0.401748 *   0.86902    1.000000    
    181 O     c    0.882182 *  0.043267 *  0.182598 *   0.86902    1.000000    
    182 O     c    0.032957 *  0.971590 *  0.303668 *   0.86902    1.000000    
    183 O     c    0.996890 *  0.168455 *  0.145027 *   0.86902    1.000000    
    184 O     c    0.137511 *  0.193890 *  0.310314 *   0.86902    1.000000    
    185 O     c    0.238025 *  0.188105 *  0.284290 *   0.86902    1.000000    
    186 O     c    0.098906 *  0.235681 *  0.447578 *   0.86902    1.000000    
    187 O     c    0.133724 *  0.300847 *  0.329230 *   0.86902    1.000000    
    188 O     c    0.268375 *  0.136909 *  0.579347 *   0.86902    1.000000    
    189 O     c    0.161651 *  0.252191 *  0.625200 *   0.86902    1.000000    
    190 Si    c    0.216327 *  0.733314 *  0.105981 *   4.00000    1.000000    
    191 O     c    0.258646 *  0.782032 *  0.135295 *   0.86902    1.000000    
    192 Si    c    0.420535 *  0.527160 *  0.126599 *   4.00000    1.000000    
    193 Si    c    0.615929 *  0.568451 *  0.185104 *   4.00000    1.000000    
    194 Si    c    0.437056 *  0.623977 *  0.880132 *   4.00000    1.000000    
    195 Si    c    0.501534 *  0.615594 *  0.091820 *   4.00000    1.000000    
    196 Si    c    0.355961 *  0.535589 *  0.915066 *   4.00000    1.000000    
    197 Si    c    0.300710 *  0.653292 *  0.156831 *   4.00000    1.000000    
    198 Si    c    0.362236 *  0.710024 *  0.914959 *   4.00000    1.000000    
    199 Si    c    0.383469 *  0.743411 *  0.122867 *   4.00000    1.000000    
    200 Si    c    0.279792 *  0.620337 *  0.948712 *   4.00000    1.000000    
    201 O     c    0.343070 *  0.485055 *  0.845010 *   0.86902    1.000000    
    202 O     c    0.483914 *  0.625221 *  0.978317 *   0.86902    1.000000    
    203 O     c    0.381989 *  0.515707 *  0.022481 *   0.86902    1.000000    
    204 O     c    0.404222 *  0.680193 *  0.865830 *   0.86902    1.000000    
    205 O     c    0.397700 *  0.574066 *  0.880720 *   0.86902    1.000000    
    206 O     c    0.462422 *  0.618094 *  0.790154 *   0.86902    1.000000    
    207 O     c    0.458064 *  0.578823 *  0.125822 *   0.86902    1.000000    
    208 O     c    0.317431 *  0.668817 *  0.931836 *   0.86902    1.000000    
    209 O     c    0.658762 *  0.616890 *  0.213790 *   0.86902    1.000000    
    210 O     c    0.559750 *  0.587506 *  0.114858 *   0.86902    1.000000    
    211 O     c    0.298631 *  0.565236 *  0.908997 *   0.86902    1.000000    
    212 O     c    0.440365 *  0.742411 *  0.201839 *   0.86902    1.000000    
    213 O     c    0.286974 *  0.615292 *  0.062827 *   0.86902    1.000000    
    214 O     c    0.605673 *  0.543542 *  0.281676 *   0.86902    1.000000    
    215 O     c    0.456380 *  0.474521 *  0.156975 *   0.86902    1.000000    
    216 O     c    0.490894 *  0.668410 *  0.321585 *   0.86902    1.000000    
    217 O     c    0.344502 *  0.697814 *  0.147084 *   0.86902    1.000000    
    218 O     c    0.244548 *  0.681849 *  0.168488 *   0.86902    1.000000    
    219 O     c    0.394469 *  0.732180 *  0.018862 *   0.86902    1.000000    
    220 O     c    0.330294 *  0.758837 *  0.846625 *   0.86902    1.000000    
    221 Si    c    0.274659 *  0.229621 *  0.361203 *   4.00000    1.000000    
    222 O     c    0.234432 *  0.273489 *  0.383759 *   0.86902    1.000000    
    223 Si    c    0.922279 *  0.023937 *  0.119796 *   4.00000    1.000000    
    224 Si    c    0.118524 *  0.069826 *  0.178411 *   4.00000    1.000000    
    225 Si    c    0.937807 *  0.126333 *  0.877588 *   4.00000    1.000000    
    226 Si    c    0.003105 *  0.113682 *  0.091318 *   4.00000    1.000000    
    227 Si    c    0.857317 *  0.037045 *  0.907188 *   4.00000    1.000000    
    228 Si    c    0.803147 *  0.154675 *  0.157511 *   4.00000    1.000000    
    229 Si    c    0.863005 *  0.210855 *  0.912324 *   4.00000    1.000000    
    230 Si    c    0.883499 *  0.245154 *  0.123461 *   4.00000    1.000000    
    231 Si    c    0.782279 *  0.120325 *  0.946293 *   4.00000    1.000000    
    232 O     c    0.844107 *  0.987931 *  0.833450 *   0.86902    1.000000    
    233 O     c    0.981720 *  0.122727 *  0.978601 *   0.86902    1.000000    
    234 O     c    0.888488 *  0.016155 *  0.011477 *   0.86902    1.000000    
    235 O     c    0.909241 *  0.185077 *  0.867587 *   0.86902    1.000000    
    236 O     c    0.894426 *  0.078811 *  0.868053 *   0.86902    1.000000    
    237 O     c    0.966540 *  0.120874 *  0.791363 *   0.86902    1.000000    
    238 O     c    0.969647 *  0.067633 *  0.129279 *   0.86902    1.000000    
    239 O     c    0.826292 *  0.162610 *  0.931772 *   0.86902    1.000000    
    240 O     c    0.164430 *  0.114670 *  0.215101 *   0.86902    1.000000    
    241 O     c    0.065232 *  0.096201 *  0.110326 *   0.86902    1.000000    
    242 O     c    0.799605 *  0.062834 *  0.912455 *   0.86902    1.000000    
    243 O     c    0.942158 *  0.246173 *  0.197499 *   0.86902    1.000000    
    244 O     c    0.784271 *  0.120460 *  0.059229 *   0.86902    1.000000    
    245 O     c    0.104617 *  0.040048 *  0.267766 *   0.86902    1.000000    
    246 O     c    0.948415 *  0.966932 *  0.154864 *   0.86902    1.000000    
    247 O     c    0.985401 *  0.171116 *  0.322750 *   0.86902    1.000000    
    248 O     c    0.850773 *  0.195071 *  0.150253 *   0.86902    1.000000    
    249 O     c    0.750640 *  0.187166 *  0.177197 *   0.86902    1.000000    
    250 O     c    0.889173 *  0.238727 *  0.014695 *   0.86902    1.000000    
    251 O     c    0.852923 *  0.302216 *  0.133939 *   0.86902    1.000000    
    252 O     c    0.825893 *  0.254261 *  0.837390 *   0.86902    1.000000    
    253 Si    c    0.772876 *  0.728917 *  0.359762 *   4.00000    1.000000    
    254 O     c    0.798167 *  0.694886 *  0.454904 *   0.86902    1.000000    
    255 O     c    0.733937 *  0.773421 *  0.384489 *   0.86902    1.000000    
    256 Si    c    0.494812 *  0.307479 *  0.729360 *   4.00000    1.000000    
    257 Si    c    0.993175 *  0.806943 *  0.728481 *   4.00000    1.000000    
    258 Si    c    0.494338 *  0.706518 *  0.234014 *   4.00000    1.000000    
    259 Si    c    0.992702 *  0.205981 *  0.233137 *   4.00000    1.000000    
    260 Si    c    0.493964 *  0.433846 *  0.230917 *   4.00000    1.000000    
    261 Si    c    0.993034 *  0.932691 *  0.229809 *   4.00000    1.000000    
    262 Si    c    0.494480 *  0.580769 *  0.732688 *   4.00000    1.000000    
    263 Si    c    0.993550 *  0.079615 *  0.731579 *   4.00000    1.000000    
    264 O     c    0.219140 *  0.376552 *  0.383148 *   0.86902    1.000000    
    265 Si    c    0.192585 *  0.318327 *  0.396559 *   4.00000    1.000000    
    266 O     c    0.187774 *  0.317248 *  0.505367 *   0.86902    1.000000    
    267 O     c    0.353790 *  0.212614 *  0.633265 *   0.86902    1.000000    
    268 Si    c    0.294930 *  0.195134 *  0.565936 *   4.00000    1.000000    
    269 O     c    0.299741 *  0.196213 *  0.457128 *   0.86902    1.000000    
    270 O     c    0.253084 *  0.239972 *  0.578736 *   0.86902    1.000000    
    271 Si    c    0.693748 *  0.194655 *  0.895875 *   4.00000    1.000000    
    272 O     c    0.734785 *  0.240393 *  0.883909 *   0.86902    1.000000    
    273 O     c    0.688743 *  0.195001 *  0.004604 *   0.86902    1.000000    
    274 O     c    0.721515 *  0.137180 *  0.881715 *   0.86902    1.000000    
    275 Si    c    0.793766 *  0.318806 *  0.066622 *   4.00000    1.000000    
    276 Si    c    0.195234 *  0.697439 *  0.887615 *   4.00000    1.000000    
    277 O     c    0.216844 *  0.635432 *  0.892904 *   0.86902    1.000000    
    278 O     c    0.209310 *  0.719109 *  0.995404 *   0.86902    1.000000    
    279 Si    c    0.693420 *  0.819354 *  0.398308 *   4.00000    1.000000    
    280 O     c    0.689348 *  0.818575 *  0.507591 *   0.86902    1.000000    
    281 O     c    0.721235 *  0.876777 *  0.384551 *   0.86902    1.000000    
    282 Si    c    0.292279 *  0.816022 *  0.074881 *   4.00000    1.000000    
    283 O     c    0.355969 *  0.803039 *  0.122818 *   0.86902    1.000000    
    284 Si    c    0.794094 *  0.694107 *  0.564187 *   4.00000    1.000000    
    285 O     c    0.766279 *  0.636685 *  0.577943 *   0.86902    1.000000    
    286 O     c    0.753577 *  0.740040 *  0.578005 *   0.86902    1.000000    
    287 O     c    0.228867 *  0.731430 *  0.827202 *   0.86902    1.000000    
    288 O     c    0.703240    0.393000    0.903270     0.86902    1.000000    
    289 O     s    0.341971 *  0.529615 *  0.346220 *  -2.86902    1.000000    
    290 O     s    0.483034 *  0.393470 *  0.476179 *  -2.86902    1.000000    
    291 O     s    0.384847 *  0.497940 *  0.521307 *  -2.86902    1.000000    
    292 O     s    0.407802 *  0.332075 *  0.368557 *  -2.86902    1.000000    
    293 O     s    0.393127 *  0.438292 *  0.375665 *  -2.86902    1.000000    
    294 O     s    0.460334 *  0.397777 *  0.287319 *  -2.86902    1.000000    
    295 O     s    0.462617 *  0.438379 *  0.629964 *  -2.86902    1.000000    
    296 O     s    0.323939 *  0.352386 *  0.431697 *  -2.86902    1.000000    
    297 O     s    0.661297 *  0.397757 *  0.715589 *  -2.86902    1.000000    
    298 O     s    0.562393 *  0.424156 *  0.613265 *  -2.86902    1.000000    
    299 O     s    0.296809 *  0.451976 *  0.416174 *  -2.86902    1.000000    
    300 O     s    0.442251 *  0.269742 *  0.696426 *  -2.86902    1.000000    
    301 O     s    0.281930 *  0.392953 *  0.560748 *  -2.86902    1.000000    
    302 O     s    0.605335 *  0.470204 *  0.779896 *  -2.86902    1.000000    
    303 O     s    0.454560 *  0.541870 *  0.658824 *  -2.86902    1.000000    
    304 O     s    0.490620 *  0.345004 *  0.817470 *  -2.86902    1.000000    
    305 O     s    0.350004 *  0.319571 *  0.652181 *  -2.86902    1.000000    
    306 O     s    0.249490 *  0.325356 *  0.678205 *  -2.86902    1.000000    
    307 O     s    0.388608 *  0.277780 *  0.514918 *  -2.86902    1.000000    
    308 O     s    0.325864 *  0.261270 *  0.337295 *  -2.86902    1.000000    
    309 O     s    0.278203 *  0.794352 *  0.967092 *  -2.86902    1.000000    
    310 O     s    0.842750 *  0.025366 *  0.333396 *  -2.86902    1.000000    
    311 O     s    0.980464 *  0.891954 *  0.476059 *  -2.86902    1.000000    
    312 O     s    0.889391 *  0.997429 *  0.510489 *  -2.86902    1.000000    
    313 O     s    0.908310 *  0.828293 *  0.365631 *  -2.86902    1.000000    
    314 O     s    0.892628 *  0.934404 *  0.365760 *  -2.86902    1.000000    
    315 O     s    0.964911 *  0.892381 *  0.289013 *  -2.86902    1.000000    
    316 O     s    0.970156 *  0.946184 *  0.629445 *  -2.86902    1.000000    
    317 O     s    0.825989 *  0.851111 *  0.431193 *  -2.86902    1.000000    
    318 O     s    0.162565 *  0.896620 *  0.713431 *  -2.86902    1.000000    
    319 O     s    0.064895 *  0.917540 *  0.607175 *  -2.86902    1.000000    
    320 O     s    0.799306 *  0.950952 *  0.415223 *  -2.86902    1.000000    
    321 O     s    0.943693 *  0.765531 *  0.692254 *  -2.86902    1.000000    
    322 O     s    0.785385 *  0.892255 *  0.561474 *  -2.86902    1.000000    
    323 O     s    0.104213 *  0.974012 *  0.764382 *  -2.86902    1.000000    
    324 O     s    0.947975 *  0.046831 *  0.655596 *  -2.86902    1.000000    
    325 O     s    0.983713 *  0.841332 *  0.817133 *  -2.86902    1.000000    
    326 O     s    0.852344 *  0.817233 *  0.650295 *  -2.86902    1.000000    
    327 O     s    0.752718 *  0.825228 *  0.679440 *  -2.86902    1.000000    
    328 O     s    0.888393 *  0.773933 *  0.511367 *  -2.86902    1.000000    
    329 O     s    0.853594 *  0.710111 *  0.630966 *  -2.86902    1.000000    
    330 O     s    0.824148 *  0.759854 *  0.334602 *  -2.86902    1.000000    
    331 O     s    0.798771 *  0.318460 *  0.957894 *  -2.86902    1.000000    
    332 O     s    0.643406 *  0.525530 *  0.129048 *  -2.86902    1.000000    
    333 O     s    0.505794 *  0.390736 *  0.983894 *  -2.86902    1.000000    
    334 O     s    0.599026 *  0.497305 *  0.951021 *  -2.86902    1.000000    
    335 O     s    0.578272 *  0.328384 *  0.094909 *  -2.86902    1.000000    
    336 O     s    0.593088 *  0.434650 *  0.094446 *  -2.86902    1.000000    
    337 O     s    0.520972 *  0.392587 *  0.171130 *  -2.86902    1.000000    
    338 O     s    0.517873 *  0.445822 *  0.833211 *  -2.86902    1.000000    
    339 O     s    0.661222 *  0.350852 *  0.030731 *  -2.86902    1.000000    
    340 O     s    0.323086 *  0.398791 *  0.747394 *  -2.86902    1.000000    
    341 O     s    0.422285 *  0.417265 *  0.852169 *  -2.86902    1.000000    
    342 O     s    0.687910 *  0.450628 *  0.050044 *  -2.86902    1.000000    
    343 O     s    0.545356 *  0.267287 *  0.764999 *  -2.86902    1.000000    
    344 O     s    0.765999 *  0.376282 *  0.080782 *  -2.86902    1.000000    
    345 O     s    0.382896 *  0.473417 *  0.694730 *  -2.86902    1.000000    
    346 O     s    0.539095 *  0.546529 *  0.807641 *  -2.86902    1.000000    
    347 O     s    0.502115 *  0.342345 *  0.639749 *  -2.86902    1.000000    
    348 O     s    0.636741 *  0.318390 *  0.812242 *  -2.86902    1.000000    
    349 O     s    0.736874 *  0.326296 *  0.785302 *  -2.86902    1.000000    
    350 O     s    0.598342 *  0.274735 *  0.947802 *  -2.86902    1.000000    
    351 O     s    0.634591 *  0.211244 *  0.828559 *  -2.86902    1.000000    
    352 O     s    0.661620 *  0.259199 *  0.125107 *  -2.86902    1.000000    
    353 O     s    0.144443 *  0.028406 *  0.117486 *  -2.86902    1.000000    
    354 O     s    0.003599 *  0.888241 *  0.984176 *  -2.86902    1.000000    
    355 O     s    0.105525 *  0.997755 *  0.940015 *  -2.86902    1.000000    
    356 O     s    0.083290 *  0.833269 *  0.096665 *  -2.86902    1.000000    
    357 O     s    0.089813 *  0.939395 *  0.081775 *  -2.86902    1.000000    
    358 O     s    0.025089 *  0.895367 *  0.172337 *  -2.86902    1.000000    
    359 O     s    0.029452 *  0.934637 *  0.836672 *  -2.86902    1.000000    
    360 O     s    0.170082 *  0.844644 *  0.030661 *  -2.86902    1.000000    
    361 O     s    0.828753 *  0.896572 *  0.748704 *  -2.86902    1.000000    
    362 O     s    0.927765 *  0.925958 *  0.847632 *  -2.86902    1.000000    
    363 O     s    0.188882 *  0.948226 *  0.053499 *  -2.86902    1.000000    
    364 O     s    0.047148 *  0.771050 *  0.760658 *  -2.86902    1.000000    
    365 O     s    0.200539 *  0.898169 *  0.899669 *  -2.86902    1.000000    
    366 O     s    0.881838 *  0.969924 *  0.680818 *  -2.86902    1.000000    
    367 O     s    0.031132 *  0.038940 *  0.805522 *  -2.86902    1.000000    
    368 O     s    0.996622 *  0.845050 *  0.640911 *  -2.86902    1.000000    
    369 O     s    0.143011 *  0.815647 *  0.815412 *  -2.86902    1.000000    
    370 O     s    0.242965 *  0.831612 *  0.794009 *  -2.86902    1.000000    
    371 O     s    0.093044 *  0.781281 *  0.943635 *  -2.86902    1.000000    
    372 O     s    0.131545 *  0.710422 *  0.839679 *  -2.86902    1.000000    
    373 O     s    0.270669 *  0.878029 *  0.069592 *  -2.86902    1.000000    
    374 O     s    0.157219 *  0.754625 *  0.115872 *  -2.86902    1.000000    
    375 O     s    0.644765 *  0.488093 *  0.629095 *  -2.86902    1.000000    
    376 O     s    0.507049 *  0.621508 *  0.486440 *  -2.86902    1.000000    
    377 O     s    0.598124 *  0.516032 *  0.452004 *  -2.86902    1.000000    
    378 O     s    0.579205 *  0.685167 *  0.596866 *  -2.86902    1.000000    
    379 O     s    0.594886 *  0.579056 *  0.596733 *  -2.86902    1.000000    
    380 O     s    0.522607 *  0.621079 *  0.673488 *  -2.86902    1.000000    
    381 O     s    0.517355 *  0.567274 *  0.333054 *  -2.86902    1.000000    
    382 O     s    0.661525 *  0.662351 *  0.531301 *  -2.86902    1.000000    
    383 O     s    0.324947 *  0.616842 *  0.249066 *  -2.86902    1.000000    
    384 O     s    0.422617 *  0.595924 *  0.355322 *  -2.86902    1.000000    
    385 O     s    0.688209 *  0.562510 *  0.547270 *  -2.86902    1.000000    
    386 O     s    0.543820 *  0.747930 *  0.270241 *  -2.86902    1.000000    
    387 O     s    0.702129 *  0.621207 *  0.401020 *  -2.86902    1.000000    
    388 O     s    0.383302 *  0.539453 *  0.198113 *  -2.86902    1.000000    
    389 O     s    0.539541 *  0.466631 *  0.306895 *  -2.86902    1.000000    
    390 O     s    0.503800 *  0.672130 *  0.145361 *  -2.86902    1.000000    
    391 O     s    0.635170 *  0.696229 *  0.312200 *  -2.86902    1.000000    
    392 O     s    0.734797 *  0.688233 *  0.283054 *  -2.86902    1.000000    
    393 O     s    0.599121 *  0.739528 *  0.451129 *  -2.86902    1.000000    
    394 O     s    0.633920 *  0.803350 *  0.331529 *  -2.86902    1.000000    
    395 O     s    0.663366 *  0.753607 *  0.627893 *  -2.86902    1.000000    
    396 O     s    0.752728 *  0.273069 *  0.078588 *  -2.86902    1.000000    
    397 O     s    0.145543 *  0.983846 *  0.616274 *  -2.86902    1.000000    
    398 O     s    0.004482 *  0.119991 *  0.486320 *  -2.86902    1.000000    
    399 O     s    0.102667 *  0.015523 *  0.441188 *  -2.86902    1.000000    
    400 O     s    0.079714 *  0.181387 *  0.593940 *  -2.86902    1.000000    
    401 O     s    0.094389 *  0.075169 *  0.586833 *  -2.86902    1.000000    
    402 O     s    0.027183 *  0.115684 *  0.675180 *  -2.86902    1.000000    
    403 O     s    0.024892 *  0.075079 *  0.332532 *  -2.86902    1.000000    
    404 O     s    0.163575 *  0.161075 *  0.530797 *  -2.86902    1.000000    
    405 O     s    0.826216 *  0.115705 *  0.246910 *  -2.86902    1.000000    
    406 O     s    0.925119 *  0.089308 *  0.349237 *  -2.86902    1.000000    
    407 O     s    0.190705 *  0.061485 *  0.546321 *  -2.86902    1.000000    
    408 O     s    0.045264 *  0.243718 *  0.266068 *  -2.86902    1.000000    
    409 O     s    0.205585 *  0.120509 *  0.401748 *  -2.86902    1.000000    
    410 O     s    0.882182 *  0.043267 *  0.182598 *  -2.86902    1.000000    
    411 O     s    0.032957 *  0.971590 *  0.303668 *  -2.86902    1.000000    
    412 O     s    0.996890 *  0.168455 *  0.145027 *  -2.86902    1.000000    
    413 O     s    0.137511 *  0.193890 *  0.310314 *  -2.86902    1.000000    
    414 O     s    0.238025 *  0.188105 *  0.284290 *  -2.86902    1.000000    
    415 O     s    0.098906 *  0.235681 *  0.447578 *  -2.86902    1.000000    
    416 O     s    0.133724 *  0.300847 *  0.329230 *  -2.86902    1.000000    
    417 O     s    0.268375 *  0.136909 *  0.579347 *  -2.86902    1.000000    
    418 O     s    0.161651 *  0.252191 *  0.625200 *  -2.86902    1.000000    
    419 O     s    0.258646 *  0.782032 *  0.135295 *  -2.86902    1.000000    
    420 O     s    0.343070 *  0.485055 *  0.845010 *  -2.86902    1.000000    
    421 O     s    0.483914 *  0.625221 *  0.978317 *  -2.86902    1.000000    
    422 O     s    0.381989 *  0.515707 *  0.022481 *  -2.86902    1.000000    
    423 O     s    0.404222 *  0.680193 *  0.865830 *  -2.86902    1.000000    
    424 O     s    0.397700 *  0.574066 *  0.880720 *  -2.86902    1.000000    
    425 O     s    0.462422 *  0.618094 *  0.790154 *  -2.86902    1.000000    
    426 O     s    0.458064 *  0.578823 *  0.125822 *  -2.86902    1.000000    
    427 O     s    0.317431 *  0.668817 *  0.931836 *  -2.86902    1.000000    
    428 O     s    0.658762 *  0.616890 *  0.213790 *  -2.86902    1.000000    
    429 O     s    0.559750 *  0.587506 *  0.114858 *  -2.86902    1.000000    
    430 O     s    0.298631 *  0.565236 *  0.908997 *  -2.86902    1.000000    
    431 O     s    0.440365 *  0.742411 *  0.201839 *  -2.86902    1.000000    
    432 O     s    0.286974 *  0.615292 *  0.062827 *  -2.86902    1.000000    
    433 O     s    0.605673 *  0.543542 *  0.281676 *  -2.86902    1.000000    
    434 O     s    0.456380 *  0.474521 *  0.156975 *  -2.86902    1.000000    
    435 O     s    0.490894 *  0.668410 *  0.321585 *  -2.86902    1.000000    
    436 O     s    0.344502 *  0.697814 *  0.147084 *  -2.86902    1.000000    
    437 O     s    0.244548 *  0.681849 *  0.168488 *  -2.86902    1.000000    
    438 O     s    0.394469 *  0.732180 *  0.018862 *  -2.86902    1.000000    
    439 O     s    0.330294 *  0.758837 *  0.846625 *  -2.86902    1.000000    
    440 O     s    0.234432 *  0.273489 *  0.383759 *  -2.86902    1.000000    
    441 O     s    0.844107 *  0.987931 *  0.833450 *  -2.86902    1.000000    
    442 O     s    0.981720 *  0.122727 *  0.978601 *  -2.86902    1.000000    
    443 O     s    0.888488 *  0.016155 *  0.011477 *  -2.86902    1.000000    
    444 O     s    0.909241 *  0.185077 *  0.867587 *  -2.86902    1.000000    
    445 O     s    0.894426 *  0.078811 *  0.868053 *  -2.86902    1.000000    
    446 O     s    0.966540 *  0.120874 *  0.791363 *  -2.86902    1.000000    
    447 O     s    0.969647 *  0.067633 *  0.129279 *  -2.86902    1.000000    
    448 O     s    0.826292 *  0.162610 *  0.931772 *  -2.86902    1.000000    
    449 O     s    0.164430 *  0.114670 *  0.215101 *  -2.86902    1.000000    
    450 O     s    0.065232 *  0.096201 *  0.110326 *  -2.86902    1.000000    
    451 O     s    0.799605 *  0.062834 *  0.912455 *  -2.86902    1.000000    
    452 O     s    0.942158 *  0.246173 *  0.197499 *  -2.86902    1.000000    
    453 O     s    0.784271 *  0.120460 *  0.059229 *  -2.86902    1.000000    
    454 O     s    0.104617 *  0.040048 *  0.267766 *  -2.86902    1.000000    
    455 O     s    0.948415 *  0.966932 *  0.154864 *  -2.86902    1.000000    
    456 O     s    0.985401 *  0.171116 *  0.322750 *  -2.86902    1.000000    
    457 O     s    0.850773 *  0.195071 *  0.150253 *  -2.86902    1.000000    
    458 O     s    0.750640 *  0.187166 *  0.177197 *  -2.86902    1.000000    
    459 O     s    0.889173 *  0.238727 *  0.014695 *  -2.86902    1.000000    
    460 O     s    0.852923 *  0.302216 *  0.133939 *  -2.86902    1.000000    
    461 O     s    0.825893 *  0.254261 *  0.837390 *  -2.86902    1.000000    
    462 O     s    0.798167 *  0.694886 *  0.454904 *  -2.86902    1.000000    
    463 O     s    0.733937 *  0.773421 *  0.384489 *  -2.86902    1.000000    
    464 O     s    0.219140 *  0.376552 *  0.383148 *  -2.86902    1.000000    
    465 O     s    0.187774 *  0.317248 *  0.505367 *  -2.86902    1.000000    
    466 O     s    0.353790 *  0.212614 *  0.633265 *  -2.86902    1.000000    
    467 O     s    0.299741 *  0.196213 *  0.457128 *  -2.86902    1.000000    
    468 O     s    0.253084 *  0.239972 *  0.578736 *  -2.86902    1.000000    
    469 O     s    0.734785 *  0.240393 *  0.883909 *  -2.86902    1.000000    
    470 O     s    0.688743 *  0.195001 *  0.004604 *  -2.86902    1.000000    
    471 O     s    0.721515 *  0.137180 *  0.881715 *  -2.86902    1.000000    
    472 O     s    0.216844 *  0.635432 *  0.892904 *  -2.86902    1.000000    
    473 O     s    0.209310 *  0.719109 *  0.995404 *  -2.86902    1.000000    
    474 O     s    0.689348 *  0.818575 *  0.507591 *  -2.86902    1.000000    
    475 O     s    0.721235 *  0.876777 *  0.384551 *  -2.86902    1.000000    
    476 O     s    0.355969 *  0.803039 *  0.122818 *  -2.86902    1.000000    
    477 O     s    0.766279 *  0.636685 *  0.577943 *  -2.86902    1.000000    
    478 O     s    0.753577 *  0.740040 *  0.578005 *  -2.86902    1.000000    
    479 O     s    0.228867 *  0.731430 *  0.827202 *  -2.86902    1.000000    
    480 O     s    0.703240 *  0.393000 *  0.903270 *  -2.86902    1.000000    
--------------------------------------------------------------------------------



********************************************************************************
*  General input information                                                   *
********************************************************************************

  Species output for all configurations : 

--------------------------------------------------------------------------------
  Species    Type    Atomic    Atomic    Charge       Radii (Angs)     Library
                     Number     Mass       (e)     Cova   Ionic  VDW   Symbol
--------------------------------------------------------------------------------
    O        Core        8      16.00   0.869020   0.730  0.000  1.360 O        
    O        Shell       8       0.00  -2.869020   0.730  0.000  0.000 O        
    Si       Core       14      28.09   4.000000   1.200  0.000  2.100 Si       
--------------------------------------------------------------------------------


  Lattice summation method               =    Ewald          (3-D)
                                         =    Parry          (2-D)
                                         =    Saunders et al (1-D)
  Accuracy factor for lattice sums       =   12.000


  Analytic derivatives to be used

  Time limit = Infinity

  Maximum range for interatomic potentials =    100000.000000 Angstroms

  General interatomic potentials :

--------------------------------------------------------------------------------
Atom  Types   Potential      Parameter       Value         Units   Cutoffs(Ang)
  1     2                                                            Min /  Max 
--------------------------------------------------------------------------------
Si   c O    s Buckingham    Buckingham A     1283.9070    eV        0.000 10.000
                            Buckingham rho  0.32052000    Ang       
                            Buckingham C     10.661580    eV*Ang^6  
--------------------------------------------------------------------------------
O    s O    s Buckingham    Buckingham A     22764.000    eV        0.000 12.000
                            Buckingham rho  0.14900000    Ang       
                            Buckingham C     27.879000    eV*Ang^6  
--------------------------------------------------------------------------------
O    c O    s Spring (c-s)  Spring k 2       74.920000    eV*Ang^-2 0.000  1.100
                            Spring k 4       0.0000000    eV*Ang^-4 
--------------------------------------------------------------------------------

  General Three-body potentials :

--------------------------------------------------------------------------------
  Atoms       Potential      Parameter       Value         Units   Cutoffs(Ang)
  1 / 2 / 3                                                          Min /  Max 
--------------------------------------------------------------------------------
Si    core    Harmonic      Three-body cnst  2.0972400    eV*rad^-2 0.000  1.900
O     shel                  Three-body angl  109.47000    degrees   0.000  1.900
O     shel                  Three-body k4    0.0000000    eV*rad^-4 0.000  3.500
                            Three-body k3    0.0000000    eV*rad^-3 
--------------------------------------------------------------------------------
Si    core    Harmonic      Three-body cnst  2.0972400    eV*rad^-2 0.000  1.900
O     shel                  Three-body angl  109.47000    degrees   0.000  1.900
õ(    shel                  Three-body k4    0.0000000    eV*rad^-4 0.000  3.500
                            Three-body k3    0.0000000    eV*rad^-3 
--------------------------------------------------------------------------------
Si    core    Harmonic      Three-body cnst  2.0972400    eV*rad^-2 0.000  1.900
õ(    shel                  Three-body angl  109.47000    degrees   0.000  1.900
õ(    shel                  Three-body k4    0.0000000    eV*rad^-4 0.000  3.500
                            Three-body k3    0.0000000    eV*rad^-3 
--------------------------------------------------------------------------------

********************************************************************************
*  Output for configuration   1 : ReferenceDataBase/ZEO-5                      *
********************************************************************************


  Components of energy : 

--------------------------------------------------------------------------------
  Interatomic potentials     =        2977.91322310 eV    
  Three-body potentials      =           1.26669313 eV    
  Monopole - monopole (real) =      -12448.30673217 eV    
  Monopole - monopole (recip)=       -2677.60485754 eV    
  Monopole - monopole (total)=      -15125.91158971 eV    
--------------------------------------------------------------------------------
  Total lattice energy       =      -12146.73167348 eV    
--------------------------------------------------------------------------------
  Total lattice energy       =        -1171973.9267 kJ/(mole unit cells)
--------------------------------------------------------------------------------


  Number of variables =     1443

  Maximum number of calculations  =           500
  Maximum Hessian update interval =            10
  Maximum step size               =   0.100000000
  Maximum parameter tolerance     =   0.000010000
  Maximum function  tolerance     =   0.000010000
  Maximum gradient  tolerance     =   0.001000000
  Maximum gradient  component     =   0.010000000

  Cell parameters to be optimised using strains

  Newton-Raphson optimiser to be used

  BFGS hessian update to be used

  General 2-D hessian to be used

  Minimiser to switch to RFO
  When gradient norm is less than     0.080000

  Switch max step size to       0.30000000 when gnorm is less than     0.005000

  Dumpfile to be written after every cycle

  Start of bulk optimisation :

  Cycle:      0 Energy:    -12146.731673  Gnorm:      4.589128  CPU:    0.370
  ** Hessian calculated **
  Cycle:      1 Energy:    -12306.200243  Gnorm:      0.924356  CPU:    0.867
  ** Hessian calculated **
  Cycle:      2 Energy:    -12315.417010  Gnorm:      0.656661  CPU:    1.630
  ** Hessian calculated **
  Cycle:      3 Energy:    -12322.278324  Gnorm:      0.343594  CPU:    2.279
  Cycle:      4 Energy:    -12323.578282  Gnorm:      0.115628  CPU:    2.503
  Cycle:      5 Energy:    -12323.815019  Gnorm:      0.060447  CPU:    2.719
  ** Hessian has required structure
  Cycle:      6 Energy:    -12323.893929  Gnorm:      0.083178  CPU:    3.050
  ** Hessian has required structure
  Cycle:      7 Energy:    -12324.048543  Gnorm:      0.064592  CPU:    3.418
  ** Hessian has required structure
  Cycle:      8 Energy:    -12324.117163  Gnorm:      0.071425  CPU:    3.786
  ** Hessian has required structure
  Cycle:      9 Energy:    -12324.182979  Gnorm:      0.067464  CPU:    4.108
  ** Hessian has required structure
  Cycle:     10 Energy:    -12324.233130  Gnorm:      0.068587  CPU:    4.542
  ** Hessian has required structure
  Cycle:     11 Energy:    -12324.274278  Gnorm:      0.054738  CPU:    4.898
  ** Hessian has required structure
  Cycle:     12 Energy:    -12324.308564  Gnorm:      0.072588  CPU:    5.269
  ** Hessian has required structure
  Cycle:     13 Energy:    -12324.750637  Gnorm:      0.036498  CPU:    6.032
  ** Hessian has required structure
  Cycle:     14 Energy:    -12324.832324  Gnorm:      0.021794  CPU:    6.450
  ** Hessian has required structure
  Cycle:     15 Energy:    -12324.863548  Gnorm:      0.010655  CPU:    6.878
  ** Hessian has required structure
  Cycle:     16 Energy:    -12324.871141  Gnorm:      0.005375  CPU:    7.316
  ** Hessian has required structure
  Cycle:     17 Energy:    -12324.873079  Gnorm:      0.002614  CPU:    7.795
  ** Hessian has required structure
  Cycle:     18 Energy:    -12324.873642  Gnorm:      0.000513  CPU:    8.163
  ** Hessian has required structure
  Cycle:     19 Energy:    -12324.873670  Gnorm:      0.000185  CPU:    8.552
  ** Hessian has required structure
  Cycle:     20 Energy:    -12324.873670  Gnorm:      0.000184  CPU:    8.976
  ** Hessian has required structure
  Cycle:     21 Energy:    -12324.873670  Gnorm:      0.000184  CPU:    9.312
  ** Hessian has required structure
  Cycle:     22 Energy:    -12324.873670  Gnorm:      0.000183  CPU:    9.772
  ** Hessian has required structure
  Cycle:     23 Energy:    -12324.873670  Gnorm:      0.000182  CPU:   10.550
  ** Hessian has required structure
  Cycle:     24 Energy:    -12324.873670  Gnorm:      0.000181  CPU:   10.887
  ** Hessian has required structure
  Cycle:     25 Energy:    -12324.873670  Gnorm:      0.000181  CPU:   11.314
  ** Hessian has required structure
  Cycle:     26 Energy:    -12324.873670  Gnorm:      0.000181  CPU:   11.686
  ** Hessian has required structure
  Cycle:     27 Energy:    -12324.873661  Gnorm:      0.000181  CPU:   12.283
  ** Hessian has required structure
  Cycle:     28 Energy:    -12324.873670  Gnorm:      0.000184  CPU:   13.057
  ** Hessian has required structure
  Cycle:     29 Energy:    -12324.873670  Gnorm:      0.000182  CPU:   13.468
  ** Hessian has required structure
  Cycle:     30 Energy:    -12324.873670  Gnorm:      0.000182  CPU:   14.067
  ** Hessian has required structure
  Cycle:     31 Energy:    -12324.873670  Gnorm:      0.000182  CPU:   15.119
  ** Hessian calculated **


  **** Optimisation achieved ****


  Final energy =  -12324.87367005 eV      
  Final Gnorm  =       0.00018214

  Components of energy : 

--------------------------------------------------------------------------------
  Interatomic potentials     =        3369.01631864 eV    
  Three-body potentials      =           4.95545818 eV    
  Monopole - monopole (real) =      -11901.24581432 eV    
  Monopole - monopole (recip)=       -3797.59963255 eV    
  Monopole - monopole (total)=      -15698.84544687 eV    
--------------------------------------------------------------------------------
  Total lattice energy       =      -12324.87367005 eV    
--------------------------------------------------------------------------------
  Total lattice energy       =        -1189161.9062 kJ/(mole unit cells)
--------------------------------------------------------------------------------

  Final fractional coordinates of atoms :

--------------------------------------------------------------------------------
   No.  Atomic        x           y          z          Radius
        Label       (Frac)      (Frac)     (Frac)       (Angs) 
--------------------------------------------------------------------------------
     1  Si    c     0.421699    0.487728    0.626807    0.000000
     2  Si    c     0.617363    0.445069    0.684830    0.000000
     3  Si    c     0.435945    0.390916    0.378373    0.000000
     4  Si    c     0.502552    0.399777    0.590227    0.000000
     5  Si    c     0.354836    0.478636    0.415388    0.000000
     6  Si    c     0.301355    0.358990    0.658912    0.000000
     7  Si    c     0.361930    0.305226    0.412518    0.000000
     8  Si    c     0.383303    0.270333    0.623614    0.000000
     9  Si    c     0.279721    0.393973    0.447861    0.000000
    10  O     c     0.341971    0.529615    0.346220    0.000000
    11  O     c     0.483034    0.393469    0.476179    0.000000
    12  O     c     0.384847    0.497940    0.521307    0.000000
    13  O     c     0.407802    0.332075    0.368557    0.000000
    14  O     c     0.393127    0.438292    0.375665    0.000000
    15  O     c     0.460334    0.397777    0.287319    0.000000
    16  O     c     0.462617    0.438379    0.629964    0.000000
    17  O     c     0.323939    0.352386    0.431698    0.000000
    18  O     c     0.661297    0.397757    0.715589    0.000000
    19  O     c     0.562393    0.424156    0.613265    0.000000
    20  O     c     0.296809    0.451976    0.416174    0.000000
    21  O     c     0.442251    0.269742    0.696426    0.000000
    22  O     c     0.281930    0.392953    0.560748    0.000000
    23  O     c     0.605335    0.470204    0.779896    0.000000
    24  O     c     0.454560    0.541870    0.658824    0.000000
    25  O     c     0.490620    0.345004    0.817470    0.000000
    26  O     c     0.350004    0.319571    0.652181    0.000000
    27  O     c     0.249490    0.325356    0.678205    0.000000
    28  O     c     0.388608    0.277780    0.514918    0.000000
    29  O     c     0.325864    0.261270    0.337295    0.000000
    30  Si    c     0.271186    0.780147    0.856516    0.000000
    31  O     c     0.278203    0.794352    0.967092    0.000000
    32  Si    c     0.922402    0.989725    0.619264    0.000000
    33  Si    c     0.118401    0.943021    0.676299    0.000000
    34  Si    c     0.936414    0.887203    0.375417    0.000000
    35  Si    c     0.002783    0.900229    0.588749    0.000000
    36  Si    c     0.856598    0.976413    0.407159    0.000000
    37  Si    c     0.805010    0.857738    0.659133    0.000000
    38  Si    c     0.861996    0.802590    0.410082    0.000000
    39  Si    c     0.884218    0.767116    0.620782    0.000000
    40  Si    c     0.782322    0.893186    0.448197    0.000000
    41  O     c     0.842750    0.025366    0.333396    0.000000
    42  O     c     0.980464    0.891954    0.476059    0.000000
    43  O     c     0.889391    0.997428    0.510489    0.000000
    44  O     c     0.908310    0.828293    0.365631    0.000000
    45  O     c     0.892628    0.934404    0.365760    0.000000
    46  O     c     0.964911    0.892381    0.289013    0.000000
    47  O     c     0.970156    0.946184    0.629446    0.000000
    48  O     c     0.825989    0.851111    0.431193    0.000000
    49  O     c     0.162565    0.896619    0.713431    0.000000
    50  O     c     0.064895    0.917540    0.607175    0.000000
    51  O     c     0.799306    0.950952    0.415223    0.000000
    52  O     c     0.943693    0.765531    0.692254    0.000000
    53  O     c     0.785385    0.892255    0.561474    0.000000
    54  O     c     0.104213    0.974012    0.764382    0.000000
    55  O     c     0.947975    0.046830    0.655595    0.000000
    56  O     c     0.983713    0.841332    0.817133    0.000000
    57  O     c     0.852344    0.817233    0.650295    0.000000
    58  O     c     0.752718    0.825228    0.679440    0.000000
    59  O     c     0.888393    0.773933    0.511367    0.000000
    60  O     c     0.853594    0.710111    0.630966    0.000000
    61  O     c     0.824148    0.759854    0.334602    0.000000
    62  Si    c     0.774238    0.285024    0.861667    0.000000
    63  O     c     0.798771    0.318460    0.957894    0.000000
    64  Si    c     0.565237    0.489524    0.842701    0.000000
    65  Si    c     0.368990    0.443637    0.784085    0.000000
    66  Si    c     0.549707    0.387128    0.084909    0.000000
    67  Si    c     0.484410    0.399779    0.871176    0.000000
    68  Si    c     0.630197    0.476416    0.055311    0.000000
    69  Si    c     0.684366    0.358786    0.804987    0.000000
    70  Si    c     0.624508    0.302607    0.050174    0.000000
    71  Si    c     0.604015    0.268307    0.839036    0.000000
    72  Si    c     0.705234    0.393136    0.016207    0.000000
    73  O     c     0.643406    0.525531    0.129048    0.000000
    74  O     c     0.505794    0.390736    0.983894    0.000000
    75  O     c     0.599026    0.497305    0.951021    0.000000
    76  O     c     0.578272    0.328384    0.094909    0.000000
    77  O     c     0.593088    0.434650    0.094446    0.000000
    78  O     c     0.520972    0.392587    0.171131    0.000000
    79  O     c     0.517873    0.445822    0.833211    0.000000
    80  O     c     0.661222    0.350852    0.030731    0.000000
    81  O     c     0.323087    0.398791    0.747394    0.000000
    82  O     c     0.422285    0.417265    0.852169    0.000000
    83  O     c     0.687910    0.450628    0.050044    0.000000
    84  O     c     0.545356    0.267287    0.764999    0.000000
    85  O     c     0.765999    0.376282    0.080782    0.000000
    86  O     c     0.382896    0.473417    0.694730    0.000000
    87  O     c     0.539095    0.546529    0.807641    0.000000
    88  O     c     0.502115    0.342346    0.639750    0.000000
    89  O     c     0.636741    0.318390    0.812242    0.000000
    90  O     c     0.736874    0.326296    0.785302    0.000000
    91  O     c     0.598342    0.274735    0.947803    0.000000
    92  O     c     0.634591    0.211244    0.828559    0.000000
    93  O     c     0.661620    0.259199    0.125107    0.000000
    94  Si    c     0.714638    0.784545    0.602733    0.000000
    95  Si    c     0.066979    0.986302    0.835897    0.000000
    96  Si    c     0.871585    0.945012    0.777390    0.000000
    97  Si    c     0.050457    0.889484    0.082361    0.000000
    98  Si    c     0.985980    0.897868    0.870673    0.000000
    99  Si    c     0.131552    0.977873    0.047430    0.000000
   100  Si    c     0.186802    0.860170    0.805666    0.000000
   101  Si    c     0.125277    0.803438    0.047538    0.000000
   102  Si    c     0.104045    0.770050    0.839630    0.000000
   103  Si    c     0.207721    0.893124    0.013785    0.000000
   104  O     c     0.144443    0.028406    0.117487    0.000000
   105  O     c     0.003599    0.888241    0.984176    0.000000
   106  O     c     0.105525    0.997755    0.940016    0.000000
   107  O     c     0.083290    0.833269    0.096665    0.000000
   108  O     c     0.089813    0.939395    0.081775    0.000000
   109  O     c     0.025089    0.895367    0.172337    0.000000
   110  O     c     0.029452    0.934637    0.836673    0.000000
   111  O     c     0.170082    0.844644    0.030661    0.000000
   112  O     c     0.828753    0.896572    0.748704    0.000000
   113  O     c     0.927765    0.925958    0.847633    0.000000
   114  O     c     0.188882    0.948226    0.053499    0.000000
   115  O     c     0.047148    0.771049    0.760659    0.000000
   116  O     c     0.200538    0.898169    0.899669    0.000000
   117  O     c     0.881838    0.969924    0.680819    0.000000
   118  O     c     0.031132    0.038940    0.805522    0.000000
   119  O     c     0.996622    0.845049    0.640911    0.000000
   120  O     c     0.143011    0.815647    0.815413    0.000000
   121  O     c     0.242965    0.831612    0.794009    0.000000
   122  O     c     0.093044    0.781281    0.943635    0.000000
   123  O     c     0.131544    0.710422    0.839679    0.000000
   124  O     c     0.270669    0.878029    0.069592    0.000000
   125  O     c     0.157220    0.754625    0.115872    0.000000
   126  Si    c     0.212856    0.283840    0.601293    0.000000
   127  Si    c     0.565111    0.523737    0.343230    0.000000
   128  Si    c     0.369112    0.570441    0.286198    0.000000
   129  Si    c     0.551101    0.626257    0.587081    0.000000
   130  Si    c     0.484730    0.613232    0.373749    0.000000
   131  Si    c     0.630917    0.537047    0.555334    0.000000
   132  Si    c     0.682504    0.655724    0.303362    0.000000
   133  Si    c     0.625518    0.710871    0.552414    0.000000
   134  Si    c     0.603296    0.746345    0.341714    0.000000
   135  Si    c     0.705192    0.620275    0.514297    0.000000
   136  O     c     0.644765    0.488093    0.629095    0.000000
   137  O     c     0.507050    0.621508    0.486440    0.000000
   138  O     c     0.598124    0.516033    0.452004    0.000000
   139  O     c     0.579205    0.685167    0.596866    0.000000
   140  O     c     0.594886    0.579056    0.596734    0.000000
   141  O     c     0.522607    0.621079    0.673488    0.000000
   142  O     c     0.517355    0.567275    0.333054    0.000000
   143  O     c     0.661525    0.662351    0.531301    0.000000
   144  O     c     0.324948    0.616842    0.249066    0.000000
   145  O     c     0.422618    0.595924    0.355323    0.000000
   146  O     c     0.688209    0.562509    0.547271    0.000000
   147  O     c     0.543820    0.747930    0.270241    0.000000
   148  O     c     0.702129    0.621207    0.401021    0.000000
   149  O     c     0.383302    0.539453    0.198114    0.000000
   150  O     c     0.539541    0.466631    0.306896    0.000000
   151  O     c     0.503800    0.672130    0.145361    0.000000
   152  O     c     0.635170    0.696229    0.312200    0.000000
   153  O     c     0.734796    0.688233    0.283054    0.000000
   154  O     c     0.599121    0.739528    0.451129    0.000000
   155  O     c     0.633920    0.803350    0.331530    0.000000
   156  O     c     0.663366    0.753607    0.627893    0.000000
   157  Si    c     0.713275    0.228437    0.100831    0.000000
   158  O     c     0.752728    0.273069    0.078588    0.000000
   159  Si    c     0.065814    0.025734    0.335688    0.000000
   160  Si    c     0.870151    0.068394    0.277668    0.000000
   161  Si    c     0.051570    0.122545    0.584126    0.000000
   162  Si    c     0.984962    0.113685    0.372273    0.000000
   163  Si    c     0.132679    0.034826    0.547108    0.000000
   164  Si    c     0.186161    0.154471    0.303584    0.000000
   165  Si    c     0.125585    0.208235    0.549978    0.000000
   166  Si    c     0.104212    0.243127    0.338882    0.000000
   167  Si    c     0.207794    0.119487    0.514635    0.000000
   168  O     c     0.145543    0.983846    0.616274    0.000000
   169  O     c     0.004482    0.119992    0.486320    0.000000
   170  O     c     0.102667    0.015523    0.441188    0.000000
   171  O     c     0.079714    0.181387    0.593940    0.000000
   172  O     c     0.094389    0.075169    0.586833    0.000000
   173  O     c     0.027183    0.115684    0.675181    0.000000
   174  O     c     0.024892    0.075079    0.332532    0.000000
   175  O     c     0.163575    0.161075    0.530798    0.000000
   176  O     c     0.826216    0.115706    0.246910    0.000000
   177  O     c     0.925119    0.089308    0.349238    0.000000
   178  O     c     0.190705    0.061485    0.546322    0.000000
   179  O     c     0.045264    0.243718    0.266068    0.000000
   180  O     c     0.205585    0.120508    0.401748    0.000000
   181  O     c     0.882182    0.043267    0.182599    0.000000
   182  O     c     0.032957    0.971590    0.303669    0.000000
   183  O     c     0.996890    0.168455    0.145027    0.000000
   184  O     c     0.137511    0.193890    0.310315    0.000000
   185  O     c     0.238025    0.188105    0.284290    0.000000
   186  O     c     0.098906    0.235681    0.447578    0.000000
   187  O     c     0.133724    0.300847    0.329231    0.000000
   188  O     c     0.268375    0.136909    0.579348    0.000000
   189  O     c     0.161651    0.252191    0.625201    0.000000
   190  Si    c     0.216327    0.733314    0.105981    0.000000
   191  O     c     0.258646    0.782032    0.135295    0.000000
   192  Si    c     0.420535    0.527160    0.126599    0.000000
   193  Si    c     0.615929    0.568451    0.185104    0.000000
   194  Si    c     0.437056    0.623977    0.880132    0.000000
   195  Si    c     0.501534    0.615594    0.091820    0.000000
   196  Si    c     0.355961    0.535589    0.915066    0.000000
   197  Si    c     0.300710    0.653292    0.156831    0.000000
   198  Si    c     0.362236    0.710024    0.914959    0.000000
   199  Si    c     0.383469    0.743411    0.122867    0.000000
   200  Si    c     0.279792    0.620337    0.948712    0.000000
   201  O     c     0.343070    0.485055    0.845011    0.000000
   202  O     c     0.483914    0.625221    0.978317    0.000000
   203  O     c     0.381989    0.515707    0.022481    0.000000
   204  O     c     0.404222    0.680193    0.865830    0.000000
   205  O     c     0.397700    0.574066    0.880720    0.000000
   206  O     c     0.462422    0.618094    0.790154    0.000000
   207  O     c     0.458064    0.578824    0.125822    0.000000
   208  O     c     0.317431    0.668817    0.931836    0.000000
   209  O     c     0.658762    0.616890    0.213790    0.000000
   210  O     c     0.559750    0.587506    0.114858    0.000000
   211  O     c     0.298631    0.565236    0.908998    0.000000
   212  O     c     0.440365    0.742411    0.201838    0.000000
   213  O     c     0.286974    0.615293    0.062828    0.000000
   214  O     c     0.605673    0.543542    0.281676    0.000000
   215  O     c     0.456380    0.474521    0.156975    0.000000
   216  O     c     0.490894    0.668411    0.321585    0.000000
   217  O     c     0.344502    0.697814    0.147084    0.000000
   218  O     c     0.244548    0.681849    0.168488    0.000000
   219  O     c     0.394469    0.732180    0.018861    0.000000
   220  O     c     0.330293    0.758837    0.846625    0.000000
   221  Si    c     0.274659    0.229621    0.361203    0.000000
   222  O     c     0.234431    0.273490    0.383759    0.000000
   223  Si    c     0.922279    0.023938    0.119796    0.000000
   224  Si    c     0.118524    0.069826    0.178411    0.000000
   225  Si    c     0.937807    0.126333    0.877588    0.000000
   226  Si    c     0.003105    0.113682    0.091318    0.000000
   227  Si    c     0.857317    0.037045    0.907188    0.000000
   228  Si    c     0.803147    0.154675    0.157511    0.000000
   229  Si    c     0.863005    0.210855    0.912324    0.000000
   230  Si    c     0.883499    0.245154    0.123461    0.000000
   231  Si    c     0.782279    0.120325    0.946293    0.000000
   232  O     c     0.844107    0.987930    0.833450    0.000000
   233  O     c     0.981720    0.122727    0.978601    0.000000
   234  O     c     0.888488    0.016155    0.011478    0.000000
   235  O     c     0.909240    0.185077    0.867587    0.000000
   236  O     c     0.894426    0.078811    0.868054    0.000000
   237  O     c     0.966540    0.120874    0.791363    0.000000
   238  O     c     0.969647    0.067633    0.129280    0.000000
   239  O     c     0.826292    0.162610    0.931772    0.000000
   240  O     c     0.164430    0.114670    0.215101    0.000000
   241  O     c     0.065232    0.096201    0.110326    0.000000
   242  O     c     0.799605    0.062833    0.912456    0.000000
   243  O     c     0.942158    0.246173    0.197499    0.000000
   244  O     c     0.784271    0.120460    0.059229    0.000000
   245  O     c     0.104617    0.040048    0.267767    0.000000
   246  O     c     0.948415    0.966932    0.154865    0.000000
   247  O     c     0.985401    0.171116    0.322750    0.000000
   248  O     c     0.850773    0.195071    0.150254    0.000000
   249  O     c     0.750640    0.187166    0.177197    0.000000
   250  O     c     0.889173    0.238727    0.014695    0.000000
   251  O     c     0.852923    0.302216    0.133940    0.000000
   252  O     c     0.825893    0.254261    0.837390    0.000000
   253  Si    c     0.772876    0.728917    0.359762    0.000000
   254  O     c     0.798167    0.694886    0.454904    0.000000
   255  O     c     0.733937    0.773421    0.384490    0.000000
   256  Si    c     0.494812    0.307479    0.729360    0.000000
   257  Si    c     0.993176    0.806942    0.728482    0.000000
   258  Si    c     0.494338    0.706518    0.234014    0.000000
   259  Si    c     0.992702    0.205981    0.233137    0.000000
   260  Si    c     0.493964    0.433846    0.230917    0.000000
   261  Si    c     0.993034    0.932691    0.229809    0.000000
   262  Si    c     0.494480    0.580770    0.732688    0.000000
   263  Si    c     0.993550    0.079615    0.731579    0.000000
   264  O     c     0.219140    0.376552    0.383148    0.000000
   265  Si    c     0.192585    0.318327    0.396560    0.000000
   266  O     c     0.187774    0.317248    0.505367    0.000000
   267  O     c     0.353790    0.212614    0.633265    0.000000
   268  Si    c     0.294930    0.195134    0.565936    0.000000
   269  O     c     0.299741    0.196213    0.457128    0.000000
   270  O     c     0.253084    0.239972    0.578736    0.000000
   271  Si    c     0.693748    0.194655    0.895876    0.000000
   272  O     c     0.734784    0.240393    0.883909    0.000000
   273  O     c     0.688743    0.195001    0.004605    0.000000
   274  O     c     0.721515    0.137180    0.881715    0.000000
   275  Si    c     0.793766    0.318806    0.066623    0.000000
   276  Si    c     0.195235    0.697439    0.887616    0.000000
   277  O     c     0.216844    0.635432    0.892905    0.000000
   278  O     c     0.209310    0.719109    0.995405    0.000000
   279  Si    c     0.693420    0.819354    0.398308    0.000000
   280  O     c     0.689347    0.818575    0.507591    0.000000
   281  O     c     0.721235    0.876777    0.384551    0.000000
   282  Si    c     0.292279    0.816022    0.074881    0.000000
   283  O     c     0.355969    0.803039    0.122818    0.000000
   284  Si    c     0.794094    0.694107    0.564187    0.000000
   285  O     c     0.766279    0.636685    0.577943    0.000000
   286  O     c     0.753577    0.740040    0.578006    0.000000
   287  O     c     0.228867    0.731430    0.827202    0.000000
   288  O     c     0.703240    0.393000    0.903270    0.000000
   289  O     s     0.346516    0.528390    0.347354    0.000000
   290  O     s     0.479979    0.393916    0.478234    0.000000
   291  O     s     0.385713    0.494524    0.521472    0.000000
   292  O     s     0.405700    0.335263    0.374424    0.000000
   293  O     s     0.393673    0.437490    0.380441    0.000000
   294  O     s     0.461354    0.401124    0.291399    0.000000
   295  O     s     0.462468    0.439551    0.625215    0.000000
   296  O     s     0.323243    0.351756    0.431372    0.000000
   297  O     s     0.659054    0.398564    0.722273    0.000000
   298  O     s     0.561703    0.423750    0.618693    0.000000
   299  O     s     0.300990    0.448400    0.419569    0.000000
   300  O     s     0.441378    0.273992    0.691810    0.000000
   301  O     s     0.283750    0.389415    0.559021    0.000000
   302  O     s     0.602115    0.469537    0.776380    0.000000
   303  O     s     0.455325    0.540000    0.663504    0.000000
   304  O     s     0.490421    0.347064    0.813660    0.000000
   305  O     s     0.348297    0.318481    0.649718    0.000000
   306  O     s     0.250705    0.324302    0.668436    0.000000
   307  O     s     0.385139    0.279934    0.515470    0.000000
   308  O     s     0.324178    0.262291    0.346893    0.000000
   309  O     s     0.279022    0.795220    0.966773    0.000000
   310  O     s     0.847429    0.024627    0.335542    0.000000
   311  O     s     0.978005    0.892388    0.477715    0.000000
   312  O     s     0.889519    0.994117    0.511415    0.000000
   313  O     s     0.906174    0.831607    0.371510    0.000000
   314  O     s     0.893506    0.933843    0.371481    0.000000
   315  O     s     0.964819    0.896372    0.292261    0.000000
   316  O     s     0.968516    0.945934    0.623927    0.000000
   317  O     s     0.825127    0.850406    0.430751    0.000000
   318  O     s     0.160432    0.897600    0.719808    0.000000
   319  O     s     0.063779    0.918445    0.612848    0.000000
   320  O     s     0.803448    0.947300    0.417998    0.000000
   321  O     s     0.942419    0.770229    0.688196    0.000000
   322  O     s     0.787119    0.888673    0.559627    0.000000
   323  O     s     0.101504    0.971913    0.762658    0.000000
   324  O     s     0.950172    0.043970    0.659957    0.000000
   325  O     s     0.985035    0.843910    0.813283    0.000000
   326  O     s     0.850592    0.816206    0.647980    0.000000
   327  O     s     0.753820    0.824154    0.669617    0.000000
   328  O     s     0.885056    0.776290    0.512098    0.000000
   329  O     s     0.850410    0.713957    0.623114    0.000000
   330  O     s     0.822629    0.760828    0.344337    0.000000
   331  O     s     0.795518    0.314815    0.959267    0.000000
   332  O     s     0.638795    0.524771    0.126958    0.000000
   333  O     s     0.508345    0.391384    0.982308    0.000000
   334  O     s     0.598632    0.493996    0.950282    0.000000
   335  O     s     0.580352    0.331666    0.088980    0.000000
   336  O     s     0.592383    0.434034    0.088992    0.000000
   337  O     s     0.521219    0.396623    0.167984    0.000000
   338  O     s     0.519399    0.445574    0.838434    0.000000
   339  O     s     0.662042    0.350197    0.031269    0.000000
   340  O     s     0.325687    0.399202    0.741370    0.000000
   341  O     s     0.423402    0.418258    0.846657    0.000000
   342  O     s     0.683771    0.447032    0.046881    0.000000
   343  O     s     0.546416    0.271817    0.769424    0.000000
   344  O     s     0.762973    0.372102    0.073144    0.000000
   345  O     s     0.385789    0.471673    0.697037    0.000000
   346  O     s     0.537054    0.543830    0.803227    0.000000
   347  O     s     0.501330    0.344948    0.644135    0.000000
   348  O     s     0.638424    0.317339    0.814444    0.000000
   349  O     s     0.735678    0.325158    0.795046    0.000000
   350  O     s     0.601789    0.277033    0.947249    0.000000
   351  O     s     0.637754    0.215031    0.836506    0.000000
   352  O     s     0.663253    0.260254    0.115503    0.000000
   353  O     s     0.139999    0.027268    0.116304    0.000000
   354  O     s     0.006851    0.889481    0.982295    0.000000
   355  O     s     0.104054    0.994180    0.940266    0.000000
   356  O     s     0.084473    0.835924    0.089648    0.000000
   357  O     s     0.090048    0.938108    0.077945    0.000000
   358  O     s     0.024377    0.898967    0.168436    0.000000
   359  O     s     0.028848    0.936243    0.840348    0.000000
   360  O     s     0.169335    0.845402    0.030655    0.000000
   361  O     s     0.830792    0.897516    0.741811    0.000000
   362  O     s     0.928128    0.924929    0.842356    0.000000
   363  O     s     0.184885    0.945257    0.048433    0.000000
   364  O     s     0.047610    0.774919    0.766032    0.000000
   365  O     s     0.199851    0.893588    0.901984    0.000000
   366  O     s     0.885291    0.969340    0.684624    0.000000
   367  O     s     0.030979    0.037443    0.800689    0.000000
   368  O     s     0.996901    0.847098    0.644845    0.000000
   369  O     s     0.143575    0.815501    0.817076    0.000000
   370  O     s     0.240407    0.829095    0.801570    0.000000
   371  O     s     0.097691    0.782479    0.943770    0.000000
   372  O     s     0.135415    0.714893    0.844602    0.000000
   373  O     s     0.266769    0.873301    0.064732    0.000000
   374  O     s     0.160039    0.757188    0.108295    0.000000
   375  O     s     0.640086    0.488833    0.626951    0.000000
   376  O     s     0.509508    0.621074    0.484783    0.000000
   377  O     s     0.597996    0.519344    0.451079    0.000000
   378  O     s     0.581341    0.681854    0.590987    0.000000
   379  O     s     0.594009    0.579617    0.591013    0.000000
   380  O     s     0.522698    0.617088    0.670240    0.000000
   381  O     s     0.518995    0.567525    0.338572    0.000000
   382  O     s     0.662388    0.663055    0.531744    0.000000
   383  O     s     0.327081    0.615862    0.242689    0.000000
   384  O     s     0.423733    0.595019    0.349650    0.000000
   385  O     s     0.684067    0.566161    0.544496    0.000000
   386  O     s     0.545095    0.743232    0.274300    0.000000
   387  O     s     0.700396    0.624789    0.402867    0.000000
   388  O     s     0.386011    0.541551    0.199838    0.000000
   389  O     s     0.537344    0.469491    0.302535    0.000000
   390  O     s     0.502478    0.669551    0.149212    0.000000
   391  O     s     0.636922    0.697255    0.314515    0.000000
   392  O     s     0.733694    0.689307    0.292878    0.000000
   393  O     s     0.602458    0.737171    0.450398    0.000000
   394  O     s     0.637104    0.799504    0.339382    0.000000
   395  O     s     0.664885    0.752633    0.618159    0.000000
   396  O     s     0.752918    0.273196    0.079811    0.000000
   397  O     s     0.140998    0.985071    0.615140    0.000000
   398  O     s     0.007536    0.119545    0.484265    0.000000
   399  O     s     0.101800    0.018938    0.441024    0.000000
   400  O     s     0.081816    0.178199    0.588074    0.000000
   401  O     s     0.093842    0.075971    0.582057    0.000000
   402  O     s     0.026162    0.112337    0.671100    0.000000
   403  O     s     0.025043    0.073908    0.337281    0.000000
   404  O     s     0.164272    0.161705    0.531124    0.000000
   405  O     s     0.828459    0.114898    0.240226    0.000000
   406  O     s     0.925810    0.089714    0.343809    0.000000
   407  O     s     0.186525    0.065061    0.542926    0.000000
   408  O     s     0.046136    0.239467    0.270685    0.000000
   409  O     s     0.203765    0.124046    0.403475    0.000000
   410  O     s     0.885402    0.043932    0.186116    0.000000
   411  O     s     0.032191    0.973461    0.298989    0.000000
   412  O     s     0.997090    0.166395    0.148838    0.000000
   413  O     s     0.139218    0.194979    0.312778    0.000000
   414  O     s     0.236811    0.189159    0.294059    0.000000
   415  O     s     0.102376    0.233527    0.447026    0.000000
   416  O     s     0.136959    0.297087    0.337094    0.000000
   417  O     s     0.265242    0.141084    0.571793    0.000000
   418  O     s     0.163337    0.251171    0.615603    0.000000
   419  O     s     0.257722    0.780457    0.125698    0.000000
   420  O     s     0.347514    0.486193    0.846193    0.000000
   421  O     s     0.480662    0.623982    0.980198    0.000000
   422  O     s     0.383459    0.519282    0.022230    0.000000
   423  O     s     0.403039    0.677537    0.872847    0.000000
   424  O     s     0.397465    0.575353    0.884550    0.000000
   425  O     s     0.463135    0.614494    0.794056    0.000000
   426  O     s     0.458668    0.577217    0.122146    0.000000
   427  O     s     0.318179    0.668059    0.931842    0.000000
   428  O     s     0.656722    0.615946    0.220683    0.000000
   429  O     s     0.559386    0.588535    0.120136    0.000000
   430  O     s     0.302628    0.568205    0.914064    0.000000
   431  O     s     0.439904    0.738541    0.196465    0.000000
   432  O     s     0.287662    0.619873    0.060513    0.000000
   433  O     s     0.602220    0.544126    0.277870    0.000000
   434  O     s     0.456534    0.476018    0.161808    0.000000
   435  O     s     0.490615    0.666362    0.317652    0.000000
   436  O     s     0.343938    0.697960    0.145420    0.000000
[...]
    229 Si    c       0.003279     -0.001841     -0.001790      0.000000
    230 Si    c       0.003700      0.001638     -0.001380      0.000000
    231 Si    c       0.002846     -0.003332     -0.002090      0.000000
    232 O     c      -0.014512     -0.015124     -0.003953      0.000000
    233 O     c       0.000007      0.006740     -0.000362      0.000000
    234 O     c      -0.001438     -0.007236      0.007351      0.000000
    235 O     c      -0.001482      0.001097     -0.000239      0.000000
    236 O     c       0.000537      0.004477     -0.002142      0.000000
    237 O     c      -0.003488      0.008470      0.000751      0.000000
    238 O     c      -0.016278      0.000384      0.023921      0.000000
    239 O     c      -0.002044     -0.003087      0.001123      0.000000
    240 O     c       0.007084     -0.002609     -0.002985      0.000000
    241 O     c       0.026495     -0.008990     -0.010496      0.000000
    242 O     c       0.001643     -0.000768     -0.001062      0.000000
    243 O     c       0.005142     -0.000658      0.000273      0.000000
    244 O     c       0.000705     -0.006025     -0.001172      0.000000
    245 O     c       0.001919      0.006642     -0.004492      0.000000
    246 O     c       0.016981     -0.050226     -0.003704      0.000000
    247 O     c       0.000217     -0.004142      0.003184      0.000000
    248 O     c       0.003828      0.002965     -0.001125      0.000000
    249 O     c       0.000127     -0.003229      0.002093      0.000000
    250 O     c       0.003971      0.001324      0.001807      0.000000
    251 O     c       0.000213      0.002143      0.001340      0.000000
    252 O     c      -0.000743      0.000824     -0.002023      0.000000
    253 Si    c       0.000722      0.000139     -0.002179      0.000000
    254 O     c       0.001069     -0.003197      0.002507      0.000000
    255 O     c      -0.004195      0.003845      0.002734      0.000000
    256 Si    c       0.010857     -0.010923     -0.008497      0.000000
    257 Si    c      -0.009006     -0.007202      0.007345      0.000000
    258 Si    c       0.008854      0.006906     -0.007094      0.000000
    259 Si    c      -0.011398      0.010295      0.008448      0.000000
    260 Si    c      -0.009214     -0.001364      0.002241      0.000000
    261 Si    c       0.016504      0.004674      0.000910      0.000000
    262 Si    c      -0.015620     -0.005045     -0.001442      0.000000
    263 Si    c       0.009637      0.000346     -0.002010      0.000000
    264 O     c      -0.000709      0.000974     -0.002436      0.000000
    265 Si    c       0.001196     -0.001516     -0.000802      0.000000
    266 O     c      -0.000799      0.004477     -0.002388      0.000000
    267 O     c       0.000083     -0.001776      0.002380      0.000000
    268 Si    c      -0.001284      0.001637      0.000779      0.000000
    269 O     c       0.000636     -0.004404      0.002433      0.000000
    270 O     c       0.007408     -0.006739     -0.003645      0.000000
    271 Si    c      -0.001398     -0.002028     -0.000758      0.000000
    272 O     c      -0.003771     -0.004399      0.002634      0.000000
    273 O     c      -0.002226     -0.004772     -0.001854      0.000000
    274 O     c       0.000402     -0.001391     -0.001686      0.000000
    275 Si    c       0.003086      0.001140      0.000698      0.000000
    276 Si    c       0.005782      0.002013     -0.002617      0.000000
    277 O     c      -0.003527      0.004172     -0.001782      0.000000
    278 O     c       0.003964      0.005021      0.000751      0.000000
    279 Si    c       0.000235     -0.000934     -0.001007      0.000000
    280 O     c      -0.001013      0.003176     -0.002515      0.000000
    281 O     c       0.001576     -0.000189     -0.001889      0.000000
    282 Si    c      -0.005877     -0.002139      0.002664      0.000000
    283 O     c       0.001745     -0.004210      0.002022      0.000000
    284 Si    c      -0.000215      0.000757      0.000990      0.000000
    285 O     c      -0.001518      0.000243      0.001880      0.000000
    286 O     c       0.004051     -0.003738     -0.002692      0.000000
    287 O     c      -0.002535      0.001178     -0.000559      0.000000
    288 O     c       0.000000      0.000000      0.000000      0.000000
    289 O     s       0.002753      0.000407     -0.002339      0.000000
    290 O     s       0.003826      0.004879      0.000880      0.000000
    291 O     s       0.005480      0.000808     -0.004343      0.000000
    292 O     s       0.005672     -0.003920     -0.001954      0.000000
    293 O     s       0.003830      0.009221     -0.000604      0.000000
    294 O     s       0.001538      0.006868      0.000384      0.000000
    295 O     s       0.006166      0.002990     -0.007458      0.000000
    296 O     s       0.001174      0.000259     -0.000277      0.000000
    297 O     s       0.003205     -0.011670     -0.001688      0.000000
    298 O     s      -0.007954      0.001694     -0.000343      0.000000
    299 O     s      -0.006685      0.005706      0.000119      0.000000
    300 O     s      -0.003723     -0.005441      0.000055      0.000000
    301 O     s      -0.005235     -0.000844      0.000516      0.000000
    302 O     s       0.018815     -0.006563     -0.007856      0.000000
    303 O     s      -0.005817      0.001529     -0.005461      0.000000
    304 O     s      -0.008121     -0.023605     -0.000031      0.000000
    305 O     s       0.001070     -0.000165      0.002313      0.000000
    306 O     s      -0.000204     -0.000638      0.003712      0.000000
    307 O     s       0.005892     -0.003312     -0.001066      0.000000
    308 O     s       0.005962     -0.002203     -0.003928      0.000000
    309 O     s       0.003659      0.004426     -0.002074      0.000000
    310 O     s       0.000326     -0.001571      0.000121      0.000000
    311 O     s      -0.002048      0.013527     -0.008764      0.000000
    312 O     s       0.006341     -0.002044     -0.001368      0.000000
    313 O     s       0.004349     -0.002946     -0.003322      0.000000
    314 O     s       0.009140     -0.000142     -0.005541      0.000000
    315 O     s      -0.000142      0.001890      0.002151      0.000000
    316 O     s      -0.005877      0.009872     -0.007812      0.000000
    317 O     s       0.000560      0.001130      0.000430      0.000000
    318 O     s       0.001422     -0.006133      0.003293      0.000000
    319 O     s       0.006222      0.000433     -0.006913      0.000000
    320 O     s      -0.011042      0.000208      0.000760      0.000000
    321 O     s      -0.004904     -0.005996      0.002291      0.000000
    322 O     s      -0.003741      0.001203      0.001008      0.000000
    323 O     s       0.000795      0.009942      0.006167      0.000000
    324 O     s      -0.000659     -0.002397     -0.002499      0.000000
    325 O     s      -0.004004     -0.003900      0.002144      0.000000
    326 O     s       0.002706      0.001632      0.000826      0.000000
    327 O     s      -0.001142     -0.000058      0.003808      0.000000
    328 O     s       0.001633     -0.002485     -0.000368      0.000000
    329 O     s       0.003367     -0.002196      0.000333      0.000000
    330 O     s       0.003740     -0.001351     -0.004099      0.000000
    331 O     s       0.001650      0.002898      0.000081      0.000000
    332 O     s      -0.003830     -0.000338      0.001622      0.000000
    333 O     s      -0.000306      0.014797      0.010239      0.000000
    334 O     s      -0.009509     -0.003971      0.008017      0.000000
    335 O     s      -0.000925     -0.003008      0.001776      0.000000
    336 O     s      -0.007492      0.000406      0.003945      0.000000
    337 O     s      -0.001670      0.003396     -0.000115      0.000000
    338 O     s       0.001927      0.008871      0.018028      0.000000
    339 O     s       0.000061     -0.002197     -0.002599      0.000000
    340 O     s      -0.004033     -0.008316     -0.001936      0.000000
    341 O     s      -0.008600      0.000555      0.007070      0.000000
    342 O     s       0.010308     -0.001895      0.000026      0.000000
    343 O     s       0.011030     -0.004875     -0.003193      0.000000
    344 O     s       0.003944      0.001387      0.000471      0.000000
    345 O     s      -0.004734      0.009767     -0.003969      0.000000
    346 O     s       0.004125      0.001780      0.006478      0.000000
    347 O     s       0.010569     -0.005732     -0.003921      0.000000
    348 O     s      -0.001060      0.002509      0.000273      0.000000
    349 O     s      -0.002611     -0.000569     -0.002126      0.000000
    350 O     s       0.002688     -0.000547     -0.000911      0.000000
    351 O     s      -0.000371      0.001266     -0.000966      0.000000
    352 O     s      -0.001735     -0.000196      0.002481      0.000000
    353 O     s      -0.001327     -0.001116      0.002251      0.000000
    354 O     s      -0.002691      0.003763     -0.001119      0.000000
    355 O     s      -0.006344      0.000571      0.001936      0.000000
    356 O     s      -0.003061     -0.002242      0.001887      0.000000
    357 O     s      -0.006511      0.008585      0.000988      0.000000
    358 O     s       0.005515      0.005780     -0.002737      0.000000
    359 O     s      -0.005693      0.002590      0.002979      0.000000
    360 O     s      -0.004076     -0.001743      0.001199      0.000000
    361 O     s      -0.001114     -0.004806      0.000704      0.000000
    362 O     s       0.007180      0.006484      0.000531      0.000000
    363 O     s       0.003980      0.003761     -0.000066      0.000000
    364 O     s       0.002682     -0.003245      0.000036      0.000000
    365 O     s       0.003334      0.003955     -0.000359      0.000000
    366 O     s      -0.006690     -0.001113      0.002852      0.000000
    367 O     s      -0.003806      0.000859      0.002564      0.000000
    368 O     s       0.006765     -0.017210      0.001388      0.000000
    369 O     s      -0.005302      0.000825     -0.000730      0.000000
    370 O     s       0.006397      0.005169     -0.002168      0.000000
    371 O     s      -0.008726     -0.000218      0.001165      0.000000
    372 O     s      -0.009818     -0.009233      0.000889      0.000000
    373 O     s       0.005057      0.009672     -0.000748      0.000000
    374 O     s      -0.002875     -0.004148      0.002429      0.000000
    375 O     s       0.000108      0.001583     -0.000450      0.000000
    376 O     s       0.001970     -0.013639      0.008339      0.000000
    377 O     s      -0.006322      0.001826      0.000817      0.000000
    378 O     s      -0.004309      0.003126      0.003281      0.000000
    379 O     s      -0.009239     -0.000015      0.005510      0.000000
    380 O     s       0.001081     -0.001878     -0.002773      0.000000
    381 O     s       0.006189     -0.010434      0.006927      0.000000
    382 O     s      -0.000464     -0.001270     -0.000473      0.000000
    383 O     s      -0.001136      0.006144     -0.003394      0.000000
    384 O     s      -0.005585     -0.000717      0.006532      0.000000
    385 O     s       0.011087     -0.000336     -0.000909      0.000000
    386 O     s       0.004668      0.006082     -0.002191      0.000000
    387 O     s       0.003733     -0.001348     -0.001054      0.000000
    388 O     s       0.000020     -0.009712     -0.006269      0.000000
    389 O     s       0.000178      0.002720      0.002142      0.000000
    390 O     s       0.003689      0.003785     -0.002101      0.000000
    391 O     s      -0.002507     -0.001637     -0.000820      0.000000
    392 O     s       0.001143      0.000137     -0.003782      0.000000
    393 O     s      -0.001912      0.002543      0.000396      0.000000
    394 O     s      -0.003492      0.002300     -0.000304      0.000000
    395 O     s      -0.003837      0.001459      0.004172      0.000000
    396 O     s       0.000588      0.000453     -0.000680      0.000000
    397 O     s      -0.002198     -0.000146      0.002203      0.000000
    398 O     s      -0.003204     -0.004552     -0.001033      0.000000
    399 O     s      -0.005057     -0.000984      0.003977      0.000000
    400 O     s      -0.005402      0.003831      0.001872      0.000000
    401 O     s      -0.003610     -0.008845      0.000471      0.000000
    402 O     s      -0.000712     -0.006904     -0.000613      0.000000
    403 O     s      -0.004709     -0.003214      0.006425      0.000000
    404 O     s      -0.001287     -0.000264      0.000254      0.000000
    405 O     s      -0.002441      0.010492      0.001444      0.000000
    406 O     s       0.007357     -0.002346      0.000328      0.000000
    407 O     s       0.006899     -0.005854     -0.000133      0.000000
    408 O     s       0.003812      0.005079      0.000018      0.000000
    409 O     s       0.005445      0.000585     -0.000630      0.000000
    410 O     s      -0.018687      0.006700      0.007174      0.000000
    411 O     s       0.005568     -0.001489      0.004946      0.000000
    412 O     s       0.009033      0.023222     -0.000166      0.000000
    413 O     s      -0.001228      0.000216     -0.002310      0.000000
    414 O     s       0.000320      0.000367     -0.003769      0.000000
    415 O     s      -0.005833      0.003152      0.000984      0.000000
    416 O     s      -0.002656      0.003246      0.000033      0.000000
    417 O     s       0.005023     -0.003741      0.000154      0.000000
    418 O     s      -0.005887      0.002054      0.003949      0.000000
    419 O     s      -0.005331      0.002485      0.004179      0.000000
    420 O     s       0.001540      0.001805     -0.002132      0.000000
    421 O     s       0.002442     -0.004052      0.001114      0.000000
    422 O     s       0.006893     -0.000292     -0.001802      0.000000
    423 O     s       0.003037      0.002268     -0.001965      0.000000
    424 O     s       0.006916     -0.008712     -0.001169      0.000000
    425 O     s      -0.006335     -0.005878      0.002954      0.000000
    426 O     s       0.005746     -0.002875     -0.002649      0.000000
    427 O     s       0.004036      0.001667     -0.001176      0.000000
    428 O     s       0.001023      0.004353     -0.000525      0.000000
    429 O     s      -0.007269     -0.007007     -0.000549      0.000000
    430 O     s      -0.003835     -0.003446      0.000045      0.000000
    431 O     s      -0.002542      0.003126     -0.000054      0.000000
    432 O     s      -0.003114     -0.003868      0.000314      0.000000
    433 O     s       0.005471      0.000432     -0.002314      0.000000
    434 O     s       0.004747     -0.000484     -0.002293      0.000000
    435 O     s      -0.006364      0.016645     -0.001578      0.000000
    436 O     s       0.005376     -0.000901      0.000707      0.000000
    437 O     s      -0.006271     -0.005022      0.002147      0.000000
    438 O     s       0.008741      0.000300     -0.001158      0.000000
    439 O     s       0.002942      0.004246     -0.002450      0.000000
    440 O     s      -0.001257      0.000431      0.000726      0.000000
    441 O     s       0.003793      0.000282     -0.001189      0.000000
    442 O     s       0.001743     -0.014618     -0.010281      0.000000
    443 O     s       0.009142      0.002848     -0.007310      0.000000
    444 O     s       0.002087      0.003402     -0.002682      0.000000
    445 O     s       0.007617     -0.001259     -0.004155      0.000000
    446 O     s       0.001814     -0.003471      0.000175      0.000000
    447 O     s      -0.000865     -0.010424     -0.016733      0.000000
    448 O     s      -0.000609      0.000117      0.000841      0.000000
    449 O     s       0.003934      0.007865      0.002015      0.000000
    450 O     s       0.008080     -0.000214     -0.006777      0.000000
    451 O     s      -0.009999      0.001818      0.000504      0.000000
    452 O     s      -0.009787      0.005451      0.003229      0.000000
    453 O     s      -0.002079      0.001384      0.000295      0.000000
    454 O     s       0.003721     -0.009987      0.004449      0.000000
    455 O     s      -0.003402     -0.001246     -0.006069      0.000000
    456 O     s      -0.009119      0.005717      0.003902      0.000000
    457 O     s       0.001550     -0.001823      0.001153      0.000000
    458 O     s       0.001070      0.001730      0.003033      0.000000
    459 O     s      -0.000991      0.001426      0.000118      0.000000
    460 O     s       0.000254      0.000130      0.001022      0.000000
    461 O     s       0.002132      0.000762     -0.003389      0.000000
    462 O     s       0.005422     -0.004102     -0.000926      0.000000
    463 O     s      -0.000957      0.000227      0.000230      0.000000
    464 O     s      -0.004802      0.003533     -0.000159      0.000000
    465 O     s      -0.007248      0.003584      0.000104      0.000000
    466 O     s       0.002727     -0.003423     -0.000029      0.000000
    467 O     s       0.007530     -0.003702     -0.000197      0.000000
    468 O     s       0.001315     -0.000249     -0.000707      0.000000
    469 O     s      -0.002378      0.001337      0.000676      0.000000
    470 O     s      -0.003668     -0.001141      0.000001      0.000000
    471 O     s      -0.003522     -0.001421     -0.000665      0.000000
    472 O     s      -0.004959     -0.009573      0.000717      0.000000
    473 O     s      -0.003520     -0.004361      0.002038      0.000000
    474 O     s      -0.005517      0.004206      0.000945      0.000000
    475 O     s      -0.005493      0.003922     -0.000010      0.000000
    476 O     s       0.009895      0.009260     -0.000942      0.000000
    477 O     s       0.005451     -0.003885      0.000002      0.000000
    478 O     s       0.001134     -0.000283     -0.000268      0.000000
    479 O     s       0.005339     -0.002487     -0.004179      0.000000
    480 O     s      -0.006208     -0.010215      0.002836      0.000000
--------------------------------------------------------------------------------
  Maximum abs         0.026931      0.051802      0.025254      0.000000
--------------------------------------------------------------------------------


  Time to end of optimisation =      16.2184 seconds


  Peak dynamic memory used =      10.15 MB 


  Timing analysis for GULP :

--------------------------------------------------------------------------------
  Task / Subroutine                                          Time (Seconds)
--------------------------------------------------------------------------------
  Calculation of reciprocal space energy and derivatives          0.9023
  Calculation of real space energy and derivatives                8.7521
  Calculation of three-body energy and derivatives                0.5535
  Calculation and manipulation of Hessian matrix                  4.5523
  Calculation of matrix inversion                                 0.5850
  Symmetry generation of equivalent positions                     0.0006
  Global summation overhead                                       0.7962
--------------------------------------------------------------------------------
  Total CPU time                                                 16.2184
--------------------------------------------------------------------------------


  Dump file written as ReferenceDataBase/ZEO-5.grs
  CIF file written as ReferenceDataBase/ZEO-5_opt.cif


  Job Finished at 14:15.31 20th April      2023                               

