********************************************************************************
*                       GENERAL UTILITY LATTICE PROGRAM                        *
*                                 Julian Gale                                  *
*                       Curtin Institute for Computation                       *
*                    School of Molecular and Life Sciences                     *
*                    Curtin University, Western Australia                      *
********************************************************************************
* Version = 6.1.2 * Last modified =   3rd November 2022                        *
********************************************************************************
*  optimise     - perform optimisation run                                     *
*  conp         - constant pressure calculation                                *
*  nosymmetry   - turn off symmetry after initial structure generation         *
********************************************************************************

  Job Started  at 12:08.49 29th July       2023                               

  Number of CPUs =     1


  Total number of configurations input =      1

********************************************************************************
*  Input for Configuration =   1 : ReferenceDataBase/ZEO-5                     *
********************************************************************************

  Formula = Si96O192                                                    

  Number of irreducible atoms/shells =     480


  Total number atoms/shells =     480

  Dimensionality = 3               :  Bulk   



  Cartesian lattice vectors (Angstroms) :

       25.466600    0.000000    0.000000
        0.021057   24.926691    0.000000
       -3.622670   -0.013800   13.933554

  Cell parameters (Angstroms/Degrees):

  a =      25.4666    alpha =  90.0671
  b =      24.9267    beta  = 104.5740
  c =      14.3968    gamma =  89.9516

  Initial cell volume =        8844.993149 Angs**3

  Temperature of configuration =   0.00     K 

  Pressure of configuration =         0.000 GPa 

  Fractional coordinates of asymmetric unit :

--------------------------------------------------------------------------------
   No.  Atomic       x           y          z         Charge      Occupancy
        Label      (Frac)      (Frac)     (Frac)        (e)         (Frac)  
--------------------------------------------------------------------------------
      1 Si    c    0.421700    0.487730    0.626810     4.00000    1.000000    
      2 Si    c    0.617360 *  0.445070 *  0.684830 *   4.00000    1.000000    
      3 Si    c    0.435950 *  0.390920 *  0.378370 *   4.00000    1.000000    
      4 Si    c    0.502550 *  0.399780 *  0.590230 *   4.00000    1.000000    
      5 Si    c    0.354840 *  0.478640 *  0.415390 *   4.00000    1.000000    
      6 Si    c    0.301350 *  0.358990 *  0.658910 *   4.00000    1.000000    
      7 Si    c    0.361930 *  0.305230 *  0.412520 *   4.00000    1.000000    
      8 Si    c    0.383300 *  0.270330 *  0.623610 *   4.00000    1.000000    
      9 Si    c    0.279720 *  0.393970 *  0.447860 *   4.00000    1.000000    
     10 O     c    0.341970 *  0.529610 *  0.346220 *   0.86902    1.000000    
     11 O     c    0.483030 *  0.393470 *  0.476180 *   0.86902    1.000000    
     12 O     c    0.384850 *  0.497940 *  0.521310 *   0.86902    1.000000    
     13 O     c    0.407800 *  0.332070 *  0.368560 *   0.86902    1.000000    
     14 O     c    0.393130 *  0.438290 *  0.375670 *   0.86902    1.000000    
     15 O     c    0.460330 *  0.397780 *  0.287320 *   0.86902    1.000000    
     16 O     c    0.462620 *  0.438380 *  0.629960 *   0.86902    1.000000    
     17 O     c    0.323940 *  0.352390 *  0.431700 *   0.86902    1.000000    
     18 O     c    0.661300 *  0.397760 *  0.715590 *   0.86902    1.000000    
     19 O     c    0.562390 *  0.424160 *  0.613260 *   0.86902    1.000000    
     20 O     c    0.296810 *  0.451980 *  0.416170 *   0.86902    1.000000    
     21 O     c    0.442250 *  0.269740 *  0.696430 *   0.86902    1.000000    
     22 O     c    0.281930 *  0.392950 *  0.560750 *   0.86902    1.000000    
     23 O     c    0.605340 *  0.470200 *  0.779900 *   0.86902    1.000000    
     24 O     c    0.454560 *  0.541870 *  0.658820 *   0.86902    1.000000    
     25 O     c    0.490620 *  0.345000 *  0.817470 *   0.86902    1.000000    
     26 O     c    0.350000 *  0.319570 *  0.652180 *   0.86902    1.000000    
     27 O     c    0.249490 *  0.325360 *  0.678210 *   0.86902    1.000000    
     28 O     c    0.388610 *  0.277780 *  0.514920 *   0.86902    1.000000    
     29 O     c    0.325860 *  0.261270 *  0.337300 *   0.86902    1.000000    
     30 Si    c    0.271190 *  0.780150 *  0.856520 *   4.00000    1.000000    
     31 O     c    0.278200 *  0.794350 *  0.967090 *   0.86902    1.000000    
     32 Si    c    0.922400 *  0.989730 *  0.619260 *   4.00000    1.000000    
     33 Si    c    0.118400 *  0.943020 *  0.676300 *   4.00000    1.000000    
     34 Si    c    0.936410 *  0.887200 *  0.375420 *   4.00000    1.000000    
     35 Si    c    0.002780 *  0.900230 *  0.588750 *   4.00000    1.000000    
     36 Si    c    0.856600 *  0.976410 *  0.407160 *   4.00000    1.000000    
     37 Si    c    0.805010 *  0.857740 *  0.659130 *   4.00000    1.000000    
     38 Si    c    0.862000 *  0.802590 *  0.410080 *   4.00000    1.000000    
     39 Si    c    0.884220 *  0.767120 *  0.620780 *   4.00000    1.000000    
     40 Si    c    0.782320 *  0.893190 *  0.448200 *   4.00000    1.000000    
     41 O     c    0.842750 *  0.025370 *  0.333400 *   0.86902    1.000000    
     42 O     c    0.980460 *  0.891950 *  0.476060 *   0.86902    1.000000    
     43 O     c    0.889390 *  0.997430 *  0.510490 *   0.86902    1.000000    
     44 O     c    0.908310 *  0.828290 *  0.365630 *   0.86902    1.000000    
     45 O     c    0.892630 *  0.934400 *  0.365760 *   0.86902    1.000000    
     46 O     c    0.964910 *  0.892380 *  0.289010 *   0.86902    1.000000    
     47 O     c    0.970160 *  0.946180 *  0.629450 *   0.86902    1.000000    
     48 O     c    0.825990 *  0.851110 *  0.431190 *   0.86902    1.000000    
     49 O     c    0.162560 *  0.896620 *  0.713430 *   0.86902    1.000000    
     50 O     c    0.064890 *  0.917540 *  0.607170 *   0.86902    1.000000    
     51 O     c    0.799310 *  0.950950 *  0.415220 *   0.86902    1.000000    
     52 O     c    0.943690 *  0.765530 *  0.692250 *   0.86902    1.000000    
     53 O     c    0.785390 *  0.892250 *  0.561470 *   0.86902    1.000000    
     54 O     c    0.104210 *  0.974010 *  0.764380 *   0.86902    1.000000    
     55 O     c    0.947970 *  0.046830 *  0.655600 *   0.86902    1.000000    
     56 O     c    0.983710 *  0.841330 *  0.817130 *   0.86902    1.000000    
     57 O     c    0.852340 *  0.817230 *  0.650300 *   0.86902    1.000000    
     58 O     c    0.752720 *  0.825230 *  0.679440 *   0.86902    1.000000    
     59 O     c    0.888390 *  0.773930 *  0.511370 *   0.86902    1.000000    
     60 O     c    0.853590 *  0.710110 *  0.630970 *   0.86902    1.000000    
     61 O     c    0.824150 *  0.759850 *  0.334600 *   0.86902    1.000000    
     62 Si    c    0.774240 *  0.285020 *  0.861670 *   4.00000    1.000000    
     63 O     c    0.798770 *  0.318460 *  0.957890 *   0.86902    1.000000    
     64 Si    c    0.565240 *  0.489520 *  0.842700 *   4.00000    1.000000    
     65 Si    c    0.368990 *  0.443640 *  0.784080 *   4.00000    1.000000    
     66 Si    c    0.549710 *  0.387130 *  0.084910 *   4.00000    1.000000    
     67 Si    c    0.484410 *  0.399780 *  0.871180 *   4.00000    1.000000    
     68 Si    c    0.630200 *  0.476420 *  0.055310 *   4.00000    1.000000    
     69 Si    c    0.684370 *  0.358790 *  0.804990 *   4.00000    1.000000    
     70 Si    c    0.624510 *  0.302610 *  0.050170 *   4.00000    1.000000    
     71 Si    c    0.604020 *  0.268310 *  0.839040 *   4.00000    1.000000    
     72 Si    c    0.705230 *  0.393140 *  0.016210 *   4.00000    1.000000    
     73 O     c    0.643410 *  0.525530 *  0.129050 *   0.86902    1.000000    
     74 O     c    0.505790 *  0.390740 *  0.983890 *   0.86902    1.000000    
     75 O     c    0.599030 *  0.497300 *  0.951020 *   0.86902    1.000000    
     76 O     c    0.578270 *  0.328380 *  0.094910 *   0.86902    1.000000    
     77 O     c    0.593090 *  0.434650 *  0.094450 *   0.86902    1.000000    
     78 O     c    0.520970 *  0.392590 *  0.171130 *   0.86902    1.000000    
     79 O     c    0.517870 *  0.445820 *  0.833210 *   0.86902    1.000000    
     80 O     c    0.661220 *  0.350850 *  0.030730 *   0.86902    1.000000    
     81 O     c    0.323090 *  0.398790 *  0.747390 *   0.86902    1.000000    
     82 O     c    0.422280 *  0.417270 *  0.852170 *   0.86902    1.000000    
     83 O     c    0.687910 *  0.450630 *  0.050040 *   0.86902    1.000000    
     84 O     c    0.545360 *  0.267290 *  0.765000 *   0.86902    1.000000    
     85 O     c    0.766000 *  0.376280 *  0.080780 *   0.86902    1.000000    
     86 O     c    0.382900 *  0.473420 *  0.694730 *   0.86902    1.000000    
     87 O     c    0.539090 *  0.546530 *  0.807640 *   0.86902    1.000000    
     88 O     c    0.502110 *  0.342350 *  0.639750 *   0.86902    1.000000    
     89 O     c    0.636740 *  0.318390 *  0.812240 *   0.86902    1.000000    
     90 O     c    0.736870 *  0.326300 *  0.785300 *   0.86902    1.000000    
     91 O     c    0.598340 *  0.274730 *  0.947800 *   0.86902    1.000000    
     92 O     c    0.634590 *  0.211240 *  0.828560 *   0.86902    1.000000    
     93 O     c    0.661620 *  0.259200 *  0.125110 *   0.86902    1.000000    
     94 Si    c    0.714640 *  0.784540 *  0.602730 *   4.00000    1.000000    
     95 Si    c    0.066980 *  0.986300 *  0.835900 *   4.00000    1.000000    
     96 Si    c    0.871580 *  0.945010 *  0.777390 *   4.00000    1.000000    
     97 Si    c    0.050460 *  0.889480 *  0.082360 *   4.00000    1.000000    
     98 Si    c    0.985980 *  0.897870 *  0.870670 *   4.00000    1.000000    
     99 Si    c    0.131550 *  0.977870 *  0.047430 *   4.00000    1.000000    
    100 Si    c    0.186800 *  0.860170 *  0.805670 *   4.00000    1.000000    
    101 Si    c    0.125280 *  0.803440 *  0.047540 *   4.00000    1.000000    
    102 Si    c    0.104040 *  0.770050 *  0.839630 *   4.00000    1.000000    
    103 Si    c    0.207720 *  0.893120 *  0.013780 *   4.00000    1.000000    
    104 O     c    0.144440 *  0.028410 *  0.117490 *   0.86902    1.000000    
    105 O     c    0.003600 *  0.888240 *  0.984180 *   0.86902    1.000000    
    106 O     c    0.105520 *  0.997760 *  0.940020 *   0.86902    1.000000    
    107 O     c    0.083290 *  0.833270 *  0.096670 *   0.86902    1.000000    
    108 O     c    0.089810 *  0.939400 *  0.081770 *   0.86902    1.000000    
    109 O     c    0.025090 *  0.895370 *  0.172340 *   0.86902    1.000000    
    110 O     c    0.029450 *  0.934640 *  0.836670 *   0.86902    1.000000    
    111 O     c    0.170080 *  0.844640 *  0.030660 *   0.86902    1.000000    
    112 O     c    0.828750 *  0.896570 *  0.748700 *   0.86902    1.000000    
    113 O     c    0.927770 *  0.925960 *  0.847630 *   0.86902    1.000000    
    114 O     c    0.188880 *  0.948230 *  0.053500 *   0.86902    1.000000    
    115 O     c    0.047150 *  0.771050 *  0.760660 *   0.86902    1.000000    
    116 O     c    0.200540 *  0.898170 *  0.899670 *   0.86902    1.000000    
    117 O     c    0.881840 *  0.969920 *  0.680820 *   0.86902    1.000000    
    118 O     c    0.031130 *  0.038940 *  0.805520 *   0.86902    1.000000    
    119 O     c    0.996620 *  0.845050 *  0.640910 *   0.86902    1.000000    
    120 O     c    0.143010 *  0.815650 *  0.815410 *   0.86902    1.000000    
    121 O     c    0.242960 *  0.831610 *  0.794010 *   0.86902    1.000000    
    122 O     c    0.093040 *  0.781280 *  0.943640 *   0.86902    1.000000    
    123 O     c    0.131540 *  0.710420 *  0.839680 *   0.86902    1.000000    
    124 O     c    0.270670 *  0.878030 *  0.069590 *   0.86902    1.000000    
    125 O     c    0.157220 *  0.754620 *  0.115870 *   0.86902    1.000000    
    126 Si    c    0.212860 *  0.283840 *  0.601290 *   4.00000    1.000000    
    127 Si    c    0.565110 *  0.523740 *  0.343230 *   4.00000    1.000000    
    128 Si    c    0.369110 *  0.570440 *  0.286200 *   4.00000    1.000000    
    129 Si    c    0.551100 *  0.626260 *  0.587080 *   4.00000    1.000000    
    130 Si    c    0.484730 *  0.613230 *  0.373750 *   4.00000    1.000000    
    131 Si    c    0.630920 *  0.537050 *  0.555330 *   4.00000    1.000000    
    132 Si    c    0.682500 *  0.655720 *  0.303360 *   4.00000    1.000000    
    133 Si    c    0.625520 *  0.710870 *  0.552410 *   4.00000    1.000000    
    134 Si    c    0.603300 *  0.746350 *  0.341710 *   4.00000    1.000000    
    135 Si    c    0.705190 *  0.620280 *  0.514300 *   4.00000    1.000000    
    136 O     c    0.644770 *  0.488090 *  0.629090 *   0.86902    1.000000    
    137 O     c    0.507050 *  0.621510 *  0.486440 *   0.86902    1.000000    
    138 O     c    0.598120 *  0.516030 *  0.452000 *   0.86902    1.000000    
    139 O     c    0.579210 *  0.685170 *  0.596870 *   0.86902    1.000000    
    140 O     c    0.594890 *  0.579060 *  0.596730 *   0.86902    1.000000    
    141 O     c    0.522610 *  0.621080 *  0.673490 *   0.86902    1.000000    
    142 O     c    0.517350 *  0.567270 *  0.333050 *   0.86902    1.000000    
    143 O     c    0.661530 *  0.662350 *  0.531300 *   0.86902    1.000000    
    144 O     c    0.324950 *  0.616840 *  0.249070 *   0.86902    1.000000    
    145 O     c    0.422620 *  0.595920 *  0.355320 *   0.86902    1.000000    
    146 O     c    0.688210 *  0.562510 *  0.547270 *   0.86902    1.000000    
    147 O     c    0.543820 *  0.747930 *  0.270240 *   0.86902    1.000000    
    148 O     c    0.702130 *  0.621210 *  0.401020 *   0.86902    1.000000    
    149 O     c    0.383300 *  0.539450 *  0.198110 *   0.86902    1.000000    
    150 O     c    0.539540 *  0.466630 *  0.306900 *   0.86902    1.000000    
    151 O     c    0.503800 *  0.672130 *  0.145360 *   0.86902    1.000000    
    152 O     c    0.635170 *  0.696230 *  0.312200 *   0.86902    1.000000    
    153 O     c    0.734800 *  0.688230 *  0.283050 *   0.86902    1.000000    
    154 O     c    0.599120 *  0.739530 *  0.451130 *   0.86902    1.000000    
    155 O     c    0.633920 *  0.803350 *  0.331530 *   0.86902    1.000000    
    156 O     c    0.663370 *  0.753610 *  0.627890 *   0.86902    1.000000    
    157 Si    c    0.713280 *  0.228440 *  0.100830 *   4.00000    1.000000    
    158 O     c    0.752730 *  0.273070 *  0.078590 *   0.86902    1.000000    
    159 Si    c    0.065810 *  0.025730 *  0.335690 *   4.00000    1.000000    
    160 Si    c    0.870150 *  0.068390 *  0.277670 *   4.00000    1.000000    
    161 Si    c    0.051570 *  0.122550 *  0.584130 *   4.00000    1.000000    
    162 Si    c    0.984960 *  0.113680 *  0.372270 *   4.00000    1.000000    
    163 Si    c    0.132680 *  0.034830 *  0.547110 *   4.00000    1.000000    
    164 Si    c    0.186160 *  0.154470 *  0.303580 *   4.00000    1.000000    
    165 Si    c    0.125590 *  0.208240 *  0.549980 *   4.00000    1.000000    
    166 Si    c    0.104210 *  0.243130 *  0.338880 *   4.00000    1.000000    
    167 Si    c    0.207790 *  0.119490 *  0.514630 *   4.00000    1.000000    
    168 O     c    0.145540 *  0.983850 *  0.616270 *   0.86902    1.000000    
    169 O     c    0.004480 *  0.119990 *  0.486320 *   0.86902    1.000000    
    170 O     c    0.102670 *  0.015520 *  0.441190 *   0.86902    1.000000    
    171 O     c    0.079710 *  0.181390 *  0.593940 *   0.86902    1.000000    
    172 O     c    0.094390 *  0.075170 *  0.586830 *   0.86902    1.000000    
    173 O     c    0.027180 *  0.115680 *  0.675180 *   0.86902    1.000000    
    174 O     c    0.024890 *  0.075080 *  0.332530 *   0.86902    1.000000    
    175 O     c    0.163580 *  0.161080 *  0.530800 *   0.86902    1.000000    
    176 O     c    0.826220 *  0.115710 *  0.246910 *   0.86902    1.000000    
    177 O     c    0.925120 *  0.089310 *  0.349240 *   0.86902    1.000000    
    178 O     c    0.190710 *  0.061480 *  0.546320 *   0.86902    1.000000    
    179 O     c    0.045260 *  0.243720 *  0.266070 *   0.86902    1.000000    
    180 O     c    0.205590 *  0.120510 *  0.401750 *   0.86902    1.000000    
    181 O     c    0.882180 *  0.043270 *  0.182600 *   0.86902    1.000000    
    182 O     c    0.032960 *  0.971590 *  0.303670 *   0.86902    1.000000    
    183 O     c    0.996890 *  0.168450 *  0.145030 *   0.86902    1.000000    
    184 O     c    0.137510 *  0.193890 *  0.310310 *   0.86902    1.000000    
    185 O     c    0.238020 *  0.188110 *  0.284290 *   0.86902    1.000000    
    186 O     c    0.098910 *  0.235680 *  0.447580 *   0.86902    1.000000    
    187 O     c    0.133720 *  0.300850 *  0.329230 *   0.86902    1.000000    
    188 O     c    0.268370 *  0.136910 *  0.579350 *   0.86902    1.000000    
    189 O     c    0.161650 *  0.252190 *  0.625200 *   0.86902    1.000000    
    190 Si    c    0.216330 *  0.733310 *  0.105980 *   4.00000    1.000000    
    191 O     c    0.258650 *  0.782030 *  0.135300 *   0.86902    1.000000    
    192 Si    c    0.420540 *  0.527160 *  0.126600 *   4.00000    1.000000    
    193 Si    c    0.615930 *  0.568450 *  0.185100 *   4.00000    1.000000    
    194 Si    c    0.437060 *  0.623980 *  0.880130 *   4.00000    1.000000    
    195 Si    c    0.501530 *  0.615590 *  0.091820 *   4.00000    1.000000    
    196 Si    c    0.355960 *  0.535590 *  0.915070 *   4.00000    1.000000    
    197 Si    c    0.300710 *  0.653290 *  0.156830 *   4.00000    1.000000    
    198 Si    c    0.362240 *  0.710020 *  0.914960 *   4.00000    1.000000    
    199 Si    c    0.383470 *  0.743410 *  0.122870 *   4.00000    1.000000    
    200 Si    c    0.279790 *  0.620340 *  0.948710 *   4.00000    1.000000    
    201 O     c    0.343070 *  0.485060 *  0.845010 *   0.86902    1.000000    
    202 O     c    0.483910 *  0.625220 *  0.978320 *   0.86902    1.000000    
    203 O     c    0.381990 *  0.515710 *  0.022480 *   0.86902    1.000000    
    204 O     c    0.404220 *  0.680190 *  0.865830 *   0.86902    1.000000    
    205 O     c    0.397700 *  0.574070 *  0.880720 *   0.86902    1.000000    
    206 O     c    0.462420 *  0.618090 *  0.790150 *   0.86902    1.000000    
    207 O     c    0.458060 *  0.578820 *  0.125820 *   0.86902    1.000000    
    208 O     c    0.317430 *  0.668820 *  0.931840 *   0.86902    1.000000    
    209 O     c    0.658760 *  0.616890 *  0.213790 *   0.86902    1.000000    
    210 O     c    0.559750 *  0.587510 *  0.114860 *   0.86902    1.000000    
    211 O     c    0.298630 *  0.565240 *  0.909000 *   0.86902    1.000000    
    212 O     c    0.440360 *  0.742410 *  0.201840 *   0.86902    1.000000    
    213 O     c    0.286970 *  0.615290 *  0.062830 *   0.86902    1.000000    
    214 O     c    0.605670 *  0.543540 *  0.281680 *   0.86902    1.000000    
    215 O     c    0.456380 *  0.474520 *  0.156980 *   0.86902    1.000000    
    216 O     c    0.490890 *  0.668410 *  0.321590 *   0.86902    1.000000    
    217 O     c    0.344500 *  0.697810 *  0.147080 *   0.86902    1.000000    
    218 O     c    0.244550 *  0.681850 *  0.168490 *   0.86902    1.000000    
    219 O     c    0.394470 *  0.732180 *  0.018860 *   0.86902    1.000000    
    220 O     c    0.330290 *  0.758840 *  0.846630 *   0.86902    1.000000    
    221 Si    c    0.274660 *  0.229620 *  0.361200 *   4.00000    1.000000    
    222 O     c    0.234430 *  0.273490 *  0.383760 *   0.86902    1.000000    
    223 Si    c    0.922280 *  0.023940 *  0.119800 *   4.00000    1.000000    
    224 Si    c    0.118520 *  0.069830 *  0.178410 *   4.00000    1.000000    
    225 Si    c    0.937810 *  0.126330 *  0.877590 *   4.00000    1.000000    
    226 Si    c    0.003110 *  0.113680 *  0.091320 *   4.00000    1.000000    
    227 Si    c    0.857320 *  0.037040 *  0.907190 *   4.00000    1.000000    
    228 Si    c    0.803150 *  0.154670 *  0.157510 *   4.00000    1.000000    
    229 Si    c    0.863010 *  0.210850 *  0.912320 *   4.00000    1.000000    
    230 Si    c    0.883500 *  0.245150 *  0.123460 *   4.00000    1.000000    
    231 Si    c    0.782280 *  0.120320 *  0.946290 *   4.00000    1.000000    
    232 O     c    0.844110 *  0.987930 *  0.833450 *   0.86902    1.000000    
    233 O     c    0.981720 *  0.122730 *  0.978600 *   0.86902    1.000000    
    234 O     c    0.888490 *  0.016160 *  0.011480 *   0.86902    1.000000    
    235 O     c    0.909240 *  0.185080 *  0.867590 *   0.86902    1.000000    
    236 O     c    0.894430 *  0.078810 *  0.868050 *   0.86902    1.000000    
    237 O     c    0.966540 *  0.120870 *  0.791360 *   0.86902    1.000000    
    238 O     c    0.969650 *  0.067630 *  0.129280 *   0.86902    1.000000    
    239 O     c    0.826290 *  0.162610 *  0.931770 *   0.86902    1.000000    
    240 O     c    0.164430 *  0.114670 *  0.215100 *   0.86902    1.000000    
    241 O     c    0.065230 *  0.096200 *  0.110330 *   0.86902    1.000000    
    242 O     c    0.799600 *  0.062830 *  0.912460 *   0.86902    1.000000    
    243 O     c    0.942160 *  0.246170 *  0.197500 *   0.86902    1.000000    
    244 O     c    0.784270 *  0.120460 *  0.059230 *   0.86902    1.000000    
    245 O     c    0.104620 *  0.040050 *  0.267770 *   0.86902    1.000000    
    246 O     c    0.948410 *  0.966930 *  0.154860 *   0.86902    1.000000    
    247 O     c    0.985400 *  0.171120 *  0.322750 *   0.86902    1.000000    
    248 O     c    0.850770 *  0.195070 *  0.150250 *   0.86902    1.000000    
    249 O     c    0.750640 *  0.187170 *  0.177200 *   0.86902    1.000000    
    250 O     c    0.889170 *  0.238730 *  0.014690 *   0.86902    1.000000    
    251 O     c    0.852920 *  0.302220 *  0.133940 *   0.86902    1.000000    
    252 O     c    0.825890 *  0.254260 *  0.837390 *   0.86902    1.000000    
    253 Si    c    0.772880 *  0.728920 *  0.359760 *   4.00000    1.000000    
    254 O     c    0.798170 *  0.694890 *  0.454900 *   0.86902    1.000000    
    255 O     c    0.733940 *  0.773420 *  0.384490 *   0.86902    1.000000    
    256 Si    c    0.494810 *  0.307480 *  0.729360 *   4.00000    1.000000    
    257 Si    c    0.993180 *  0.806940 *  0.728480 *   4.00000    1.000000    
    258 Si    c    0.494340 *  0.706520 *  0.234010 *   4.00000    1.000000    
    259 Si    c    0.992700 *  0.205980 *  0.233140 *   4.00000    1.000000    
    260 Si    c    0.493960 *  0.433850 *  0.230920 *   4.00000    1.000000    
    261 Si    c    0.993030 *  0.932690 *  0.229810 *   4.00000    1.000000    
    262 Si    c    0.494480 *  0.580770 *  0.732690 *   4.00000    1.000000    
    263 Si    c    0.993550 *  0.079610 *  0.731580 *   4.00000    1.000000    
    264 O     c    0.219140 *  0.376550 *  0.383150 *   0.86902    1.000000    
    265 Si    c    0.192580 *  0.318330 *  0.396560 *   4.00000    1.000000    
    266 O     c    0.187770 *  0.317250 *  0.505370 *   0.86902    1.000000    
    267 O     c    0.353790 *  0.212610 *  0.633270 *   0.86902    1.000000    
    268 Si    c    0.294930 *  0.195130 *  0.565940 *   4.00000    1.000000    
    269 O     c    0.299740 *  0.196210 *  0.457130 *   0.86902    1.000000    
    270 O     c    0.253080 *  0.239970 *  0.578740 *   0.86902    1.000000    
    271 Si    c    0.693750 *  0.194660 *  0.895880 *   4.00000    1.000000    
    272 O     c    0.734780 *  0.240390 *  0.883910 *   0.86902    1.000000    
    273 O     c    0.688740 *  0.195000 *  0.004600 *   0.86902    1.000000    
    274 O     c    0.721520 *  0.137180 *  0.881720 *   0.86902    1.000000    
    275 Si    c    0.793770 *  0.318810 *  0.066620 *   4.00000    1.000000    
    276 Si    c    0.195230 *  0.697440 *  0.887620 *   4.00000    1.000000    
    277 O     c    0.216840 *  0.635430 *  0.892900 *   0.86902    1.000000    
    278 O     c    0.209310 *  0.719110 *  0.995400 *   0.86902    1.000000    
    279 Si    c    0.693420 *  0.819350 *  0.398310 *   4.00000    1.000000    
    280 O     c    0.689350 *  0.818580 *  0.507590 *   0.86902    1.000000    
    281 O     c    0.721230 *  0.876780 *  0.384550 *   0.86902    1.000000    
    282 Si    c    0.292280 *  0.816020 *  0.074880 *   4.00000    1.000000    
    283 O     c    0.355970 *  0.803040 *  0.122820 *   0.86902    1.000000    
    284 Si    c    0.794090 *  0.694110 *  0.564190 *   4.00000    1.000000    
    285 O     c    0.766280 *  0.636680 *  0.577940 *   0.86902    1.000000    
    286 O     c    0.753580 *  0.740040 *  0.578010 *   0.86902    1.000000    
    287 O     c    0.228870 *  0.731430 *  0.827200 *   0.86902    1.000000    
    288 O     c    0.703240 *  0.393000 *  0.903270 *   0.86902    1.000000    
    289 O     s    0.341970 *  0.529610 *  0.346220 *  -2.86902    1.000000    
    290 O     s    0.483030 *  0.393470 *  0.476180 *  -2.86902    1.000000    
    291 O     s    0.384850 *  0.497940 *  0.521310 *  -2.86902    1.000000    
    292 O     s    0.407800 *  0.332070 *  0.368560 *  -2.86902    1.000000    
    293 O     s    0.393130 *  0.438290 *  0.375670 *  -2.86902    1.000000    
    294 O     s    0.460330 *  0.397780 *  0.287320 *  -2.86902    1.000000    
    295 O     s    0.462620 *  0.438380 *  0.629960 *  -2.86902    1.000000    
    296 O     s    0.323940 *  0.352390 *  0.431700 *  -2.86902    1.000000    
    297 O     s    0.661300 *  0.397760 *  0.715590 *  -2.86902    1.000000    
    298 O     s    0.562390 *  0.424160 *  0.613260 *  -2.86902    1.000000    
    299 O     s    0.296810 *  0.451980 *  0.416170 *  -2.86902    1.000000    
    300 O     s    0.442250 *  0.269740 *  0.696430 *  -2.86902    1.000000    
    301 O     s    0.281930 *  0.392950 *  0.560750 *  -2.86902    1.000000    
    302 O     s    0.605340 *  0.470200 *  0.779900 *  -2.86902    1.000000    
    303 O     s    0.454560 *  0.541870 *  0.658820 *  -2.86902    1.000000    
    304 O     s    0.490620 *  0.345000 *  0.817470 *  -2.86902    1.000000    
    305 O     s    0.350000 *  0.319570 *  0.652180 *  -2.86902    1.000000    
    306 O     s    0.249490 *  0.325360 *  0.678210 *  -2.86902    1.000000    
    307 O     s    0.388610 *  0.277780 *  0.514920 *  -2.86902    1.000000    
    308 O     s    0.325860 *  0.261270 *  0.337300 *  -2.86902    1.000000    
    309 O     s    0.278200 *  0.794350 *  0.967090 *  -2.86902    1.000000    
    310 O     s    0.842750 *  0.025370 *  0.333400 *  -2.86902    1.000000    
    311 O     s    0.980460 *  0.891950 *  0.476060 *  -2.86902    1.000000    
    312 O     s    0.889390 *  0.997430 *  0.510490 *  -2.86902    1.000000    
    313 O     s    0.908310 *  0.828290 *  0.365630 *  -2.86902    1.000000    
    314 O     s    0.892630 *  0.934400 *  0.365760 *  -2.86902    1.000000    
    315 O     s    0.964910 *  0.892380 *  0.289010 *  -2.86902    1.000000    
    316 O     s    0.970160 *  0.946180 *  0.629450 *  -2.86902    1.000000    
    317 O     s    0.825990 *  0.851110 *  0.431190 *  -2.86902    1.000000    
    318 O     s    0.162560 *  0.896620 *  0.713430 *  -2.86902    1.000000    
    319 O     s    0.064890 *  0.917540 *  0.607170 *  -2.86902    1.000000    
    320 O     s    0.799310 *  0.950950 *  0.415220 *  -2.86902    1.000000    
    321 O     s    0.943690 *  0.765530 *  0.692250 *  -2.86902    1.000000    
    322 O     s    0.785390 *  0.892250 *  0.561470 *  -2.86902    1.000000    
    323 O     s    0.104210 *  0.974010 *  0.764380 *  -2.86902    1.000000    
    324 O     s    0.947970 *  0.046830 *  0.655600 *  -2.86902    1.000000    
    325 O     s    0.983710 *  0.841330 *  0.817130 *  -2.86902    1.000000    
    326 O     s    0.852340 *  0.817230 *  0.650300 *  -2.86902    1.000000    
    327 O     s    0.752720 *  0.825230 *  0.679440 *  -2.86902    1.000000    
    328 O     s    0.888390 *  0.773930 *  0.511370 *  -2.86902    1.000000    
    329 O     s    0.853590 *  0.710110 *  0.630970 *  -2.86902    1.000000    
    330 O     s    0.824150 *  0.759850 *  0.334600 *  -2.86902    1.000000    
    331 O     s    0.798770 *  0.318460 *  0.957890 *  -2.86902    1.000000    
    332 O     s    0.643410 *  0.525530 *  0.129050 *  -2.86902    1.000000    
    333 O     s    0.505790 *  0.390740 *  0.983890 *  -2.86902    1.000000    
    334 O     s    0.599030 *  0.497300 *  0.951020 *  -2.86902    1.000000    
    335 O     s    0.578270 *  0.328380 *  0.094910 *  -2.86902    1.000000    
    336 O     s    0.593090 *  0.434650 *  0.094450 *  -2.86902    1.000000    
    337 O     s    0.520970 *  0.392590 *  0.171130 *  -2.86902    1.000000    
    338 O     s    0.517870 *  0.445820 *  0.833210 *  -2.86902    1.000000    
    339 O     s    0.661220 *  0.350850 *  0.030730 *  -2.86902    1.000000    
    340 O     s    0.323090 *  0.398790 *  0.747390 *  -2.86902    1.000000    
    341 O     s    0.422280 *  0.417270 *  0.852170 *  -2.86902    1.000000    
    342 O     s    0.687910 *  0.450630 *  0.050040 *  -2.86902    1.000000    
    343 O     s    0.545360 *  0.267290 *  0.765000 *  -2.86902    1.000000    
    344 O     s    0.766000 *  0.376280 *  0.080780 *  -2.86902    1.000000    
    345 O     s    0.382900 *  0.473420 *  0.694730 *  -2.86902    1.000000    
    346 O     s    0.539090 *  0.546530 *  0.807640 *  -2.86902    1.000000    
    347 O     s    0.502110 *  0.342350 *  0.639750 *  -2.86902    1.000000    
    348 O     s    0.636740 *  0.318390 *  0.812240 *  -2.86902    1.000000    
    349 O     s    0.736870 *  0.326300 *  0.785300 *  -2.86902    1.000000    
    350 O     s    0.598340 *  0.274730 *  0.947800 *  -2.86902    1.000000    
    351 O     s    0.634590 *  0.211240 *  0.828560 *  -2.86902    1.000000    
    352 O     s    0.661620 *  0.259200 *  0.125110 *  -2.86902    1.000000    
    353 O     s    0.144440 *  0.028410 *  0.117490 *  -2.86902    1.000000    
    354 O     s    0.003600 *  0.888240 *  0.984180 *  -2.86902    1.000000    
    355 O     s    0.105520 *  0.997760 *  0.940020 *  -2.86902    1.000000    
    356 O     s    0.083290 *  0.833270 *  0.096670 *  -2.86902    1.000000    
    357 O     s    0.089810 *  0.939400 *  0.081770 *  -2.86902    1.000000    
    358 O     s    0.025090 *  0.895370 *  0.172340 *  -2.86902    1.000000    
    359 O     s    0.029450 *  0.934640 *  0.836670 *  -2.86902    1.000000    
    360 O     s    0.170080 *  0.844640 *  0.030660 *  -2.86902    1.000000    
    361 O     s    0.828750 *  0.896570 *  0.748700 *  -2.86902    1.000000    
    362 O     s    0.927770 *  0.925960 *  0.847630 *  -2.86902    1.000000    
    363 O     s    0.188880 *  0.948230 *  0.053500 *  -2.86902    1.000000    
    364 O     s    0.047150 *  0.771050 *  0.760660 *  -2.86902    1.000000    
    365 O     s    0.200540 *  0.898170 *  0.899670 *  -2.86902    1.000000    
    366 O     s    0.881840 *  0.969920 *  0.680820 *  -2.86902    1.000000    
    367 O     s    0.031130 *  0.038940 *  0.805520 *  -2.86902    1.000000    
    368 O     s    0.996620 *  0.845050 *  0.640910 *  -2.86902    1.000000    
    369 O     s    0.143010 *  0.815650 *  0.815410 *  -2.86902    1.000000    
    370 O     s    0.242960 *  0.831610 *  0.794010 *  -2.86902    1.000000    
    371 O     s    0.093040 *  0.781280 *  0.943640 *  -2.86902    1.000000    
    372 O     s    0.131540 *  0.710420 *  0.839680 *  -2.86902    1.000000    
    373 O     s    0.270670 *  0.878030 *  0.069590 *  -2.86902    1.000000    
    374 O     s    0.157220 *  0.754620 *  0.115870 *  -2.86902    1.000000    
    375 O     s    0.644770 *  0.488090 *  0.629090 *  -2.86902    1.000000    
    376 O     s    0.507050 *  0.621510 *  0.486440 *  -2.86902    1.000000    
    377 O     s    0.598120 *  0.516030 *  0.452000 *  -2.86902    1.000000    
    378 O     s    0.579210 *  0.685170 *  0.596870 *  -2.86902    1.000000    
    379 O     s    0.594890 *  0.579060 *  0.596730 *  -2.86902    1.000000    
    380 O     s    0.522610 *  0.621080 *  0.673490 *  -2.86902    1.000000    
    381 O     s    0.517350 *  0.567270 *  0.333050 *  -2.86902    1.000000    
    382 O     s    0.661530 *  0.662350 *  0.531300 *  -2.86902    1.000000    
    383 O     s    0.324950 *  0.616840 *  0.249070 *  -2.86902    1.000000    
    384 O     s    0.422620 *  0.595920 *  0.355320 *  -2.86902    1.000000    
    385 O     s    0.688210 *  0.562510 *  0.547270 *  -2.86902    1.000000    
    386 O     s    0.543820 *  0.747930 *  0.270240 *  -2.86902    1.000000    
    387 O     s    0.702130 *  0.621210 *  0.401020 *  -2.86902    1.000000    
    388 O     s    0.383300 *  0.539450 *  0.198110 *  -2.86902    1.000000    
    389 O     s    0.539540 *  0.466630 *  0.306900 *  -2.86902    1.000000    
    390 O     s    0.503800 *  0.672130 *  0.145360 *  -2.86902    1.000000    
    391 O     s    0.635170 *  0.696230 *  0.312200 *  -2.86902    1.000000    
    392 O     s    0.734800 *  0.688230 *  0.283050 *  -2.86902    1.000000    
    393 O     s    0.599120 *  0.739530 *  0.451130 *  -2.86902    1.000000    
    394 O     s    0.633920 *  0.803350 *  0.331530 *  -2.86902    1.000000    
    395 O     s    0.663370 *  0.753610 *  0.627890 *  -2.86902    1.000000    
    396 O     s    0.752730 *  0.273070 *  0.078590 *  -2.86902    1.000000    
    397 O     s    0.145540 *  0.983850 *  0.616270 *  -2.86902    1.000000    
    398 O     s    0.004480 *  0.119990 *  0.486320 *  -2.86902    1.000000    
    399 O     s    0.102670 *  0.015520 *  0.441190 *  -2.86902    1.000000    
    400 O     s    0.079710 *  0.181390 *  0.593940 *  -2.86902    1.000000    
    401 O     s    0.094390 *  0.075170 *  0.586830 *  -2.86902    1.000000    
    402 O     s    0.027180 *  0.115680 *  0.675180 *  -2.86902    1.000000    
    403 O     s    0.024890 *  0.075080 *  0.332530 *  -2.86902    1.000000    
    404 O     s    0.163580 *  0.161080 *  0.530800 *  -2.86902    1.000000    
    405 O     s    0.826220 *  0.115710 *  0.246910 *  -2.86902    1.000000    
    406 O     s    0.925120 *  0.089310 *  0.349240 *  -2.86902    1.000000    
    407 O     s    0.190710 *  0.061480 *  0.546320 *  -2.86902    1.000000    
    408 O     s    0.045260 *  0.243720 *  0.266070 *  -2.86902    1.000000    
    409 O     s    0.205590 *  0.120510 *  0.401750 *  -2.86902    1.000000    
    410 O     s    0.882180 *  0.043270 *  0.182600 *  -2.86902    1.000000    
    411 O     s    0.032960 *  0.971590 *  0.303670 *  -2.86902    1.000000    
    412 O     s    0.996890 *  0.168450 *  0.145030 *  -2.86902    1.000000    
    413 O     s    0.137510 *  0.193890 *  0.310310 *  -2.86902    1.000000    
    414 O     s    0.238020 *  0.188110 *  0.284290 *  -2.86902    1.000000    
    415 O     s    0.098910 *  0.235680 *  0.447580 *  -2.86902    1.000000    
    416 O     s    0.133720 *  0.300850 *  0.329230 *  -2.86902    1.000000    
    417 O     s    0.268370 *  0.136910 *  0.579350 *  -2.86902    1.000000    
    418 O     s    0.161650 *  0.252190 *  0.625200 *  -2.86902    1.000000    
    419 O     s    0.258650 *  0.782030 *  0.135300 *  -2.86902    1.000000    
    420 O     s    0.343070 *  0.485060 *  0.845010 *  -2.86902    1.000000    
    421 O     s    0.483910 *  0.625220 *  0.978320 *  -2.86902    1.000000    
    422 O     s    0.381990 *  0.515710 *  0.022480 *  -2.86902    1.000000    
    423 O     s    0.404220 *  0.680190 *  0.865830 *  -2.86902    1.000000    
    424 O     s    0.397700 *  0.574070 *  0.880720 *  -2.86902    1.000000    
    425 O     s    0.462420 *  0.618090 *  0.790150 *  -2.86902    1.000000    
    426 O     s    0.458060 *  0.578820 *  0.125820 *  -2.86902    1.000000    
    427 O     s    0.317430 *  0.668820 *  0.931840 *  -2.86902    1.000000    
    428 O     s    0.658760 *  0.616890 *  0.213790 *  -2.86902    1.000000    
    429 O     s    0.559750 *  0.587510 *  0.114860 *  -2.86902    1.000000    
    430 O     s    0.298630 *  0.565240 *  0.909000 *  -2.86902    1.000000    
    431 O     s    0.440360 *  0.742410 *  0.201840 *  -2.86902    1.000000    
    432 O     s    0.286970 *  0.615290 *  0.062830 *  -2.86902    1.000000    
    433 O     s    0.605670 *  0.543540 *  0.281680 *  -2.86902    1.000000    
    434 O     s    0.456380 *  0.474520 *  0.156980 *  -2.86902    1.000000    
    435 O     s    0.490890 *  0.668410 *  0.321590 *  -2.86902    1.000000    
    436 O     s    0.344500 *  0.697810 *  0.147080 *  -2.86902    1.000000    
    437 O     s    0.244550 *  0.681850 *  0.168490 *  -2.86902    1.000000    
    438 O     s    0.394470 *  0.732180 *  0.018860 *  -2.86902    1.000000    
    439 O     s    0.330290 *  0.758840 *  0.846630 *  -2.86902    1.000000    
    440 O     s    0.234430 *  0.273490 *  0.383760 *  -2.86902    1.000000    
    441 O     s    0.844110 *  0.987930 *  0.833450 *  -2.86902    1.000000    
    442 O     s    0.981720 *  0.122730 *  0.978600 *  -2.86902    1.000000    
    443 O     s    0.888490 *  0.016160 *  0.011480 *  -2.86902    1.000000    
    444 O     s    0.909240 *  0.185080 *  0.867590 *  -2.86902    1.000000    
    445 O     s    0.894430 *  0.078810 *  0.868050 *  -2.86902    1.000000    
    446 O     s    0.966540 *  0.120870 *  0.791360 *  -2.86902    1.000000    
    447 O     s    0.969650 *  0.067630 *  0.129280 *  -2.86902    1.000000    
    448 O     s    0.826290 *  0.162610 *  0.931770 *  -2.86902    1.000000    
    449 O     s    0.164430 *  0.114670 *  0.215100 *  -2.86902    1.000000    
    450 O     s    0.065230 *  0.096200 *  0.110330 *  -2.86902    1.000000    
    451 O     s    0.799600 *  0.062830 *  0.912460 *  -2.86902    1.000000    
    452 O     s    0.942160 *  0.246170 *  0.197500 *  -2.86902    1.000000    
    453 O     s    0.784270 *  0.120460 *  0.059230 *  -2.86902    1.000000    
    454 O     s    0.104620 *  0.040050 *  0.267770 *  -2.86902    1.000000    
    455 O     s    0.948410 *  0.966930 *  0.154860 *  -2.86902    1.000000    
    456 O     s    0.985400 *  0.171120 *  0.322750 *  -2.86902    1.000000    
    457 O     s    0.850770 *  0.195070 *  0.150250 *  -2.86902    1.000000    
    458 O     s    0.750640 *  0.187170 *  0.177200 *  -2.86902    1.000000    
    459 O     s    0.889170 *  0.238730 *  0.014690 *  -2.86902    1.000000    
    460 O     s    0.852920 *  0.302220 *  0.133940 *  -2.86902    1.000000    
    461 O     s    0.825890 *  0.254260 *  0.837390 *  -2.86902    1.000000    
    462 O     s    0.798170 *  0.694890 *  0.454900 *  -2.86902    1.000000    
    463 O     s    0.733940 *  0.773420 *  0.384490 *  -2.86902    1.000000    
    464 O     s    0.219140 *  0.376550 *  0.383150 *  -2.86902    1.000000    
    465 O     s    0.187770 *  0.317250 *  0.505370 *  -2.86902    1.000000    
    466 O     s    0.353790 *  0.212610 *  0.633270 *  -2.86902    1.000000    
    467 O     s    0.299740 *  0.196210 *  0.457130 *  -2.86902    1.000000    
    468 O     s    0.253080 *  0.239970 *  0.578740 *  -2.86902    1.000000    
    469 O     s    0.734780 *  0.240390 *  0.883910 *  -2.86902    1.000000    
    470 O     s    0.688740 *  0.195000 *  0.004600 *  -2.86902    1.000000    
    471 O     s    0.721520 *  0.137180 *  0.881720 *  -2.86902    1.000000    
    472 O     s    0.216840 *  0.635430 *  0.892900 *  -2.86902    1.000000    
    473 O     s    0.209310 *  0.719110 *  0.995400 *  -2.86902    1.000000    
    474 O     s    0.689350 *  0.818580 *  0.507590 *  -2.86902    1.000000    
    475 O     s    0.721230 *  0.876780 *  0.384550 *  -2.86902    1.000000    
    476 O     s    0.355970 *  0.803040 *  0.122820 *  -2.86902    1.000000    
    477 O     s    0.766280 *  0.636680 *  0.577940 *  -2.86902    1.000000    
    478 O     s    0.753580 *  0.740040 *  0.578010 *  -2.86902    1.000000    
    479 O     s    0.228870 *  0.731430 *  0.827200 *  -2.86902    1.000000    
    480 O     s    0.703240 *  0.393000 *  0.903270 *  -2.86902    1.000000    
--------------------------------------------------------------------------------



********************************************************************************
*  General input information                                                   *
********************************************************************************

  Species output for all configurations : 

--------------------------------------------------------------------------------
  Species    Type    Atomic    Atomic    Charge       Radii (Angs)     Library
                     Number     Mass       (e)     Cova   Ionic  VDW   Symbol
--------------------------------------------------------------------------------
    O        Core        8      16.00   0.869020   0.730  0.000  1.360 O        
    O        Shell       8       0.00  -2.869020   0.730  0.000  0.000 O        
    Si       Core       14      28.09   4.000000   1.200  0.000  2.100 Si       
--------------------------------------------------------------------------------


  Lattice summation method               =    Ewald          (3-D)
                                         =    Parry          (2-D)
                                         =    Saunders et al (1-D)
  Accuracy factor for lattice sums       =   12.000


  Analytic derivatives to be used

  Time limit = Infinity

  Maximum range for interatomic potentials =    100000.000000 Angstroms

  General interatomic potentials :

--------------------------------------------------------------------------------
Atom  Types   Potential      Parameter       Value         Units   Cutoffs(Ang)
  1     2                                                            Min /  Max 
--------------------------------------------------------------------------------
Si   c O    s Buckingham    Buckingham A     1283.9070    eV        0.000 10.000
                            Buckingham rho  0.32052000    Ang       
                            Buckingham C     10.661580    eV*Ang^6  
--------------------------------------------------------------------------------
O    s O    s Buckingham    Buckingham A     22764.000    eV        0.000 12.000
                            Buckingham rho  0.14900000    Ang       
                            Buckingham C     27.879000    eV*Ang^6  
--------------------------------------------------------------------------------
O    c O    s Spring (c-s)  Spring k 2       74.920000    eV*Ang^-2 0.000  1.100
                            Spring k 4       0.0000000    eV*Ang^-4 
--------------------------------------------------------------------------------

  General Three-body potentials :

--------------------------------------------------------------------------------
  Atoms       Potential      Parameter       Value         Units   Cutoffs(Ang)
  1 / 2 / 3                                                          Min /  Max 
--------------------------------------------------------------------------------
Si    core    Harmonic      Three-body cnst  2.0972400    eV*rad^-2 0.000  1.900
O     shel                  Three-body angl  109.47000    degrees   0.000  1.900
O     shel                  Three-body k4    0.0000000    eV*rad^-4 0.000  3.500
                            Three-body k3    0.0000000    eV*rad^-3 
--------------------------------------------------------------------------------
Si    core    Harmonic      Three-body cnst  2.0972400    eV*rad^-2 0.000  1.900
O     shel                  Three-body angl  109.47000    degrees   0.000  1.900
õ(    shel                  Three-body k4    0.0000000    eV*rad^-4 0.000  3.500
                            Three-body k3    0.0000000    eV*rad^-3 
--------------------------------------------------------------------------------
Si    core    Harmonic      Three-body cnst  2.0972400    eV*rad^-2 0.000  1.900
õ(    shel                  Three-body angl  109.47000    degrees   0.000  1.900
õ(    shel                  Three-body k4    0.0000000    eV*rad^-4 0.000  3.500
                            Three-body k3    0.0000000    eV*rad^-3 
--------------------------------------------------------------------------------

********************************************************************************
*  Output for configuration   1 : ReferenceDataBase/ZEO-5                      *
********************************************************************************


  Components of energy : 

--------------------------------------------------------------------------------
  Interatomic potentials     =        2977.90557096 eV    
  Three-body potentials      =           1.26637401 eV    
  Monopole - monopole (real) =      -12448.28503254 eV    
  Monopole - monopole (recip)=       -2677.60355315 eV    
  Monopole - monopole (total)=      -15125.88858569 eV    
--------------------------------------------------------------------------------
  Total lattice energy       =      -12146.71664072 eV    
--------------------------------------------------------------------------------
  Total lattice energy       =        -1171972.4763 kJ/(mole unit cells)
--------------------------------------------------------------------------------
