********************************************************************************
*                       GENERAL UTILITY LATTICE PROGRAM                        *
*                                 Julian Gale                                  *
*                       Curtin Institute for Computation                       *
*                    School of Molecular and Life Sciences                     *
*                    Curtin University, Western Australia                      *
********************************************************************************
* Version = 6.1.2 * Last modified =   3rd November 2022                        *
********************************************************************************
*  optimise     - perform optimisation run                                     *
*  conv         - constant volume calculation                                  *
*  shell        - only shells and radii to be optimised                        *
*  nosymmetry   - turn off symmetry after initial structure generation         *
********************************************************************************

  Job Started  at 00:51.43  6th February   2024                               

  Number of CPUs =     1


  Total number of configurations input =      1

********************************************************************************
*  Input for Configuration =   1 : ReferenceDataBase/ITW                       *
********************************************************************************

  Formula = O96Si48                                                     

  Number of irreducible atoms/shells =     240


  Total number atoms/shells =     240

  Dimensionality = 3               :  Bulk   



  Cartesian lattice vectors (Angstroms) :

       10.450000    0.000000    0.000000
        0.000000   15.028000    0.000000
       -4.827857    0.000000   17.244949

  Cell parameters (Angstroms/Degrees):

  a =      10.4500    alpha =  90.0000
  b =      15.0280    beta  = 105.6400
  c =      17.9080    gamma =  90.0000

  Initial cell volume =        2708.191623 Angs**3

  Temperature of configuration =   0.00     K 

  Pressure of configuration =         0.000 GPa 

  Fractional coordinates of asymmetric unit :

--------------------------------------------------------------------------------
   No.  Atomic       x           y          z         Charge      Occupancy
        Label      (Frac)      (Frac)     (Frac)        (e)         (Frac)  
--------------------------------------------------------------------------------
      1 O     c    0.500000    0.226600    0.000000     0.86902    1.000000    
      2 O     c    0.309400    0.164100    0.385750     0.86902    1.000000    
      3 O     c    0.346700    0.336700    0.400550     0.86902    1.000000    
      4 O     c    0.250000    0.250000    0.000000     0.86902    1.000000    
      5 O     c    0.436700    0.389500    0.134300     0.86902    1.000000    
      6 O     c    0.342300    0.366100    0.254900     0.86902    1.000000    
      7 O     c    0.258100    0.500000    0.159800     0.86902    1.000000    
      8 O     c    0.363200    0.500000    0.351750     0.86902    1.000000    
      9 Si    c    0.351600    0.244500    0.446950     4.00000    1.000000    
     10 Si    c    0.306700    0.397900    0.165850     4.00000    1.000000    
     11 Si    c    0.403900    0.397900    0.343150     4.00000    1.000000    
     12 O     c    0.690600    0.164100    0.114250     0.86902    1.000000    
     13 O     c    0.653300    0.336700    0.099450     0.86902    1.000000    
     14 O     c    0.750000    0.250000    0.000000     0.86902    1.000000    
     15 O     c    0.563300    0.389500    0.365700     0.86902    1.000000    
     16 O     c    0.657700    0.366100    0.245100     0.86902    1.000000    
     17 O     c    0.741900    0.500000    0.340200     0.86902    1.000000    
     18 O     c    0.636800    0.500000    0.148250     0.86902    1.000000    
     19 Si    c    0.648400    0.244500    0.053050     4.00000    1.000000    
     20 Si    c    0.693300    0.397900    0.334150     4.00000    1.000000    
     21 Si    c    0.596100    0.397900    0.156850     4.00000    1.000000    
     22 O     c    0.500000    0.773400    0.000000     0.86902    1.000000    
     23 O     c    0.690600    0.835900    0.114250     0.86902    1.000000    
     24 O     c    0.653300    0.663300    0.099450     0.86902    1.000000    
     25 O     c    0.750000    0.750000    0.000000     0.86902    1.000000    
     26 O     c    0.563300    0.610500    0.365700     0.86902    1.000000    
     27 O     c    0.657700    0.633900    0.245100     0.86902    1.000000    
     28 Si    c    0.648400    0.755500    0.053050     4.00000    1.000000    
     29 Si    c    0.693300    0.602100    0.334150     4.00000    1.000000    
     30 Si    c    0.596100    0.602100    0.156850     4.00000    1.000000    
     31 O     c    0.309400    0.835900    0.385750     0.86902    1.000000    
     32 O     c    0.346700    0.663300    0.400550     0.86902    1.000000    
     33 O     c    0.250000    0.750000    0.000000     0.86902    1.000000    
     34 O     c    0.436700    0.610500    0.134300     0.86902    1.000000    
     35 O     c    0.342300    0.633900    0.254900     0.86902    1.000000    
     36 Si    c    0.351600    0.755500    0.446950     4.00000    1.000000    
     37 Si    c    0.306700    0.602100    0.165850     4.00000    1.000000    
     38 Si    c    0.403900    0.602100    0.343150     4.00000    1.000000    
     39 O     c    0.000000    0.726600    0.000000     0.86902    1.000000    
     40 O     c    0.809400    0.664100    0.385750     0.86902    1.000000    
     41 O     c    0.846700    0.836700    0.400550     0.86902    1.000000    
     42 O     c    0.936700    0.889500    0.134300     0.86902    1.000000    
     43 O     c    0.842300    0.866100    0.254900     0.86902    1.000000    
     44 O     c    0.758100    0.000000    0.159800     0.86902    1.000000    
     45 O     c    0.863200    0.000000    0.351750     0.86902    1.000000    
     46 Si    c    0.851600    0.744500    0.446950     4.00000    1.000000    
     47 Si    c    0.806700    0.897900    0.165850     4.00000    1.000000    
     48 Si    c    0.903900    0.897900    0.343150     4.00000    1.000000    
     49 O     c    0.190600    0.664100    0.114250     0.86902    1.000000    
     50 O     c    0.153300    0.836700    0.099450     0.86902    1.000000    
     51 O     c    0.063300    0.889500    0.365700     0.86902    1.000000    
     52 O     c    0.157700    0.866100    0.245100     0.86902    1.000000    
     53 O     c    0.241900    0.000000    0.340200     0.86902    1.000000    
     54 O     c    0.136800    0.000000    0.148250     0.86902    1.000000    
     55 Si    c    0.148400    0.744500    0.053050     4.00000    1.000000    
     56 Si    c    0.193300    0.897900    0.334150     4.00000    1.000000    
     57 Si    c    0.096100    0.897900    0.156850     4.00000    1.000000    
     58 O     c    0.000000    0.273400    0.000000     0.86902    1.000000    
     59 O     c    0.190600    0.335900    0.114250     0.86902    1.000000    
     60 O     c    0.153300    0.163300    0.099450     0.86902    1.000000    
     61 O     c    0.063300    0.110500    0.365700     0.86902    1.000000    
     62 O     c    0.157700    0.133900    0.245100     0.86902    1.000000    
     63 Si    c    0.148400    0.255500    0.053050     4.00000    1.000000    
     64 Si    c    0.193300    0.102100    0.334150     4.00000    1.000000    
     65 Si    c    0.096100    0.102100    0.156850     4.00000    1.000000    
     66 O     c    0.809400    0.335900    0.385750     0.86902    1.000000    
     67 O     c    0.846700    0.163300    0.400550     0.86902    1.000000    
     68 O     c    0.936700    0.110500    0.134300     0.86902    1.000000    
     69 O     c    0.842300    0.133900    0.254900     0.86902    1.000000    
     70 Si    c    0.851600    0.255500    0.446950     4.00000    1.000000    
     71 Si    c    0.806700    0.102100    0.165850     4.00000    1.000000    
     72 Si    c    0.903900    0.102100    0.343150     4.00000    1.000000    
     73 O     c    0.500000    0.226600    0.500000     0.86902    1.000000    
     74 O     c    0.309400    0.164100    0.885750     0.86902    1.000000    
     75 O     c    0.346700    0.336700    0.900550     0.86902    1.000000    
     76 O     c    0.250000    0.250000    0.500000     0.86902    1.000000    
     77 O     c    0.436700    0.389500    0.634300     0.86902    1.000000    
     78 O     c    0.342300    0.366100    0.754900     0.86902    1.000000    
     79 O     c    0.258100    0.500000    0.659800     0.86902    1.000000    
     80 O     c    0.363200    0.500000    0.851750     0.86902    1.000000    
     81 Si    c    0.351600    0.244500    0.946950     4.00000    1.000000    
     82 Si    c    0.306700    0.397900    0.665850     4.00000    1.000000    
     83 Si    c    0.403900    0.397900    0.843150     4.00000    1.000000    
     84 O     c    0.690600    0.164100    0.614250     0.86902    1.000000    
     85 O     c    0.653300    0.336700    0.599450     0.86902    1.000000    
     86 O     c    0.750000    0.250000    0.500000     0.86902    1.000000    
     87 O     c    0.563300    0.389500    0.865700     0.86902    1.000000    
     88 O     c    0.657700    0.366100    0.745100     0.86902    1.000000    
     89 O     c    0.741900    0.500000    0.840200     0.86902    1.000000    
     90 O     c    0.636800    0.500000    0.648250     0.86902    1.000000    
     91 Si    c    0.648400    0.244500    0.553050     4.00000    1.000000    
     92 Si    c    0.693300    0.397900    0.834150     4.00000    1.000000    
     93 Si    c    0.596100    0.397900    0.656850     4.00000    1.000000    
     94 O     c    0.500000    0.773400    0.500000     0.86902    1.000000    
     95 O     c    0.690600    0.835900    0.614250     0.86902    1.000000    
     96 O     c    0.653300    0.663300    0.599450     0.86902    1.000000    
     97 O     c    0.750000    0.750000    0.500000     0.86902    1.000000    
     98 O     c    0.563300    0.610500    0.865700     0.86902    1.000000    
     99 O     c    0.657700    0.633900    0.745100     0.86902    1.000000    
    100 Si    c    0.648400    0.755500    0.553050     4.00000    1.000000    
    101 Si    c    0.693300    0.602100    0.834150     4.00000    1.000000    
    102 Si    c    0.596100    0.602100    0.656850     4.00000    1.000000    
    103 O     c    0.309400    0.835900    0.885750     0.86902    1.000000    
    104 O     c    0.346700    0.663300    0.900550     0.86902    1.000000    
    105 O     c    0.250000    0.750000    0.500000     0.86902    1.000000    
    106 O     c    0.436700    0.610500    0.634300     0.86902    1.000000    
    107 O     c    0.342300    0.633900    0.754900     0.86902    1.000000    
    108 Si    c    0.351600    0.755500    0.946950     4.00000    1.000000    
    109 Si    c    0.306700    0.602100    0.665850     4.00000    1.000000    
    110 Si    c    0.403900    0.602100    0.843150     4.00000    1.000000    
    111 O     c    0.000000    0.726600    0.500000     0.86902    1.000000    
    112 O     c    0.809400    0.664100    0.885750     0.86902    1.000000    
    113 O     c    0.846700    0.836700    0.900550     0.86902    1.000000    
    114 O     c    0.936700    0.889500    0.634300     0.86902    1.000000    
    115 O     c    0.842300    0.866100    0.754900     0.86902    1.000000    
    116 O     c    0.758100    0.000000    0.659800     0.86902    1.000000    
    117 O     c    0.863200    0.000000    0.851750     0.86902    1.000000    
    118 Si    c    0.851600    0.744500    0.946950     4.00000    1.000000    
    119 Si    c    0.806700    0.897900    0.665850     4.00000    1.000000    
    120 Si    c    0.903900    0.897900    0.843150     4.00000    1.000000    
    121 O     c    0.190600    0.664100    0.614250     0.86902    1.000000    
    122 O     c    0.153300    0.836700    0.599450     0.86902    1.000000    
    123 O     c    0.063300    0.889500    0.865700     0.86902    1.000000    
    124 O     c    0.157700    0.866100    0.745100     0.86902    1.000000    
    125 O     c    0.241900    0.000000    0.840200     0.86902    1.000000    
    126 O     c    0.136800    0.000000    0.648250     0.86902    1.000000    
    127 Si    c    0.148400    0.744500    0.553050     4.00000    1.000000    
    128 Si    c    0.193300    0.897900    0.834150     4.00000    1.000000    
    129 Si    c    0.096100    0.897900    0.656850     4.00000    1.000000    
    130 O     c    0.000000    0.273400    0.500000     0.86902    1.000000    
    131 O     c    0.190600    0.335900    0.614250     0.86902    1.000000    
    132 O     c    0.153300    0.163300    0.599450     0.86902    1.000000    
    133 O     c    0.063300    0.110500    0.865700     0.86902    1.000000    
    134 O     c    0.157700    0.133900    0.745100     0.86902    1.000000    
    135 Si    c    0.148400    0.255500    0.553050     4.00000    1.000000    
    136 Si    c    0.193300    0.102100    0.834150     4.00000    1.000000    
    137 Si    c    0.096100    0.102100    0.656850     4.00000    1.000000    
    138 O     c    0.809400    0.335900    0.885750     0.86902    1.000000    
    139 O     c    0.846700    0.163300    0.900550     0.86902    1.000000    
    140 O     c    0.936700    0.110500    0.634300     0.86902    1.000000    
    141 O     c    0.842300    0.133900    0.754900     0.86902    1.000000    
    142 Si    c    0.851600    0.255500    0.946950     4.00000    1.000000    
    143 Si    c    0.806700    0.102100    0.665850     4.00000    1.000000    
    144 Si    c    0.903900    0.102100    0.843150     4.00000    1.000000    
    145 O     s    0.500000 *  0.226600 *  0.000000 *  -2.86902    1.000000    
    146 O     s    0.309400 *  0.164100 *  0.385750 *  -2.86902    1.000000    
    147 O     s    0.346700 *  0.336700 *  0.400550 *  -2.86902    1.000000    
    148 O     s    0.250000 *  0.250000 *  0.000000 *  -2.86902    1.000000    
    149 O     s    0.436700 *  0.389500 *  0.134300 *  -2.86902    1.000000    
    150 O     s    0.342300 *  0.366100 *  0.254900 *  -2.86902    1.000000    
    151 O     s    0.258100 *  0.500000 *  0.159800 *  -2.86902    1.000000    
    152 O     s    0.363200 *  0.500000 *  0.351750 *  -2.86902    1.000000    
    153 O     s    0.690600 *  0.164100 *  0.114250 *  -2.86902    1.000000    
    154 O     s    0.653300 *  0.336700 *  0.099450 *  -2.86902    1.000000    
    155 O     s    0.750000 *  0.250000 *  0.000000 *  -2.86902    1.000000    
    156 O     s    0.563300 *  0.389500 *  0.365700 *  -2.86902    1.000000    
    157 O     s    0.657700 *  0.366100 *  0.245100 *  -2.86902    1.000000    
    158 O     s    0.741900 *  0.500000 *  0.340200 *  -2.86902    1.000000    
    159 O     s    0.636800 *  0.500000 *  0.148250 *  -2.86902    1.000000    
    160 O     s    0.500000 *  0.773400 *  0.000000 *  -2.86902    1.000000    
    161 O     s    0.690600 *  0.835900 *  0.114250 *  -2.86902    1.000000    
    162 O     s    0.653300 *  0.663300 *  0.099450 *  -2.86902    1.000000    
    163 O     s    0.750000 *  0.750000 *  0.000000 *  -2.86902    1.000000    
    164 O     s    0.563300 *  0.610500 *  0.365700 *  -2.86902    1.000000    
    165 O     s    0.657700 *  0.633900 *  0.245100 *  -2.86902    1.000000    
    166 O     s    0.309400 *  0.835900 *  0.385750 *  -2.86902    1.000000    
    167 O     s    0.346700 *  0.663300 *  0.400550 *  -2.86902    1.000000    
    168 O     s    0.250000 *  0.750000 *  0.000000 *  -2.86902    1.000000    
    169 O     s    0.436700 *  0.610500 *  0.134300 *  -2.86902    1.000000    
    170 O     s    0.342300 *  0.633900 *  0.254900 *  -2.86902    1.000000    
    171 O     s    0.000000 *  0.726600 *  0.000000 *  -2.86902    1.000000    
    172 O     s    0.809400 *  0.664100 *  0.385750 *  -2.86902    1.000000    
    173 O     s    0.846700 *  0.836700 *  0.400550 *  -2.86902    1.000000    
    174 O     s    0.936700 *  0.889500 *  0.134300 *  -2.86902    1.000000    
    175 O     s    0.842300 *  0.866100 *  0.254900 *  -2.86902    1.000000    
    176 O     s    0.758100 *  0.000000 *  0.159800 *  -2.86902    1.000000    
    177 O     s    0.863200 *  0.000000 *  0.351750 *  -2.86902    1.000000    
    178 O     s    0.190600 *  0.664100 *  0.114250 *  -2.86902    1.000000    
    179 O     s    0.153300 *  0.836700 *  0.099450 *  -2.86902    1.000000    
    180 O     s    0.063300 *  0.889500 *  0.365700 *  -2.86902    1.000000    
    181 O     s    0.157700 *  0.866100 *  0.245100 *  -2.86902    1.000000    
    182 O     s    0.241900 *  0.000000 *  0.340200 *  -2.86902    1.000000    
    183 O     s    0.136800 *  0.000000 *  0.148250 *  -2.86902    1.000000    
    184 O     s    0.000000 *  0.273400 *  0.000000 *  -2.86902    1.000000    
    185 O     s    0.190600 *  0.335900 *  0.114250 *  -2.86902    1.000000    
    186 O     s    0.153300 *  0.163300 *  0.099450 *  -2.86902    1.000000    
    187 O     s    0.063300 *  0.110500 *  0.365700 *  -2.86902    1.000000    
    188 O     s    0.157700 *  0.133900 *  0.245100 *  -2.86902    1.000000    
    189 O     s    0.809400 *  0.335900 *  0.385750 *  -2.86902    1.000000    
    190 O     s    0.846700 *  0.163300 *  0.400550 *  -2.86902    1.000000    
    191 O     s    0.936700 *  0.110500 *  0.134300 *  -2.86902    1.000000    
    192 O     s    0.842300 *  0.133900 *  0.254900 *  -2.86902    1.000000    
    193 O     s    0.500000 *  0.226600 *  0.500000 *  -2.86902    1.000000    
    194 O     s    0.309400 *  0.164100 *  0.885750 *  -2.86902    1.000000    
    195 O     s    0.346700 *  0.336700 *  0.900550 *  -2.86902    1.000000    
    196 O     s    0.250000 *  0.250000 *  0.500000 *  -2.86902    1.000000    
    197 O     s    0.436700 *  0.389500 *  0.634300 *  -2.86902    1.000000    
    198 O     s    0.342300 *  0.366100 *  0.754900 *  -2.86902    1.000000    
    199 O     s    0.258100 *  0.500000 *  0.659800 *  -2.86902    1.000000    
    200 O     s    0.363200 *  0.500000 *  0.851750 *  -2.86902    1.000000    
    201 O     s    0.690600 *  0.164100 *  0.614250 *  -2.86902    1.000000    
    202 O     s    0.653300 *  0.336700 *  0.599450 *  -2.86902    1.000000    
    203 O     s    0.750000 *  0.250000 *  0.500000 *  -2.86902    1.000000    
    204 O     s    0.563300 *  0.389500 *  0.865700 *  -2.86902    1.000000    
    205 O     s    0.657700 *  0.366100 *  0.745100 *  -2.86902    1.000000    
    206 O     s    0.741900 *  0.500000 *  0.840200 *  -2.86902    1.000000    
    207 O     s    0.636800 *  0.500000 *  0.648250 *  -2.86902    1.000000    
    208 O     s    0.500000 *  0.773400 *  0.500000 *  -2.86902    1.000000    
    209 O     s    0.690600 *  0.835900 *  0.614250 *  -2.86902    1.000000    
    210 O     s    0.653300 *  0.663300 *  0.599450 *  -2.86902    1.000000    
    211 O     s    0.750000 *  0.750000 *  0.500000 *  -2.86902    1.000000    
    212 O     s    0.563300 *  0.610500 *  0.865700 *  -2.86902    1.000000    
    213 O     s    0.657700 *  0.633900 *  0.745100 *  -2.86902    1.000000    
    214 O     s    0.309400 *  0.835900 *  0.885750 *  -2.86902    1.000000    
    215 O     s    0.346700 *  0.663300 *  0.900550 *  -2.86902    1.000000    
    216 O     s    0.250000 *  0.750000 *  0.500000 *  -2.86902    1.000000    
    217 O     s    0.436700 *  0.610500 *  0.634300 *  -2.86902    1.000000    
    218 O     s    0.342300 *  0.633900 *  0.754900 *  -2.86902    1.000000    
    219 O     s    0.000000 *  0.726600 *  0.500000 *  -2.86902    1.000000    
    220 O     s    0.809400 *  0.664100 *  0.885750 *  -2.86902    1.000000    
    221 O     s    0.846700 *  0.836700 *  0.900550 *  -2.86902    1.000000    
    222 O     s    0.936700 *  0.889500 *  0.634300 *  -2.86902    1.000000    
    223 O     s    0.842300 *  0.866100 *  0.754900 *  -2.86902    1.000000    
    224 O     s    0.758100 *  0.000000 *  0.659800 *  -2.86902    1.000000    
    225 O     s    0.863200 *  0.000000 *  0.851750 *  -2.86902    1.000000    
    226 O     s    0.190600 *  0.664100 *  0.614250 *  -2.86902    1.000000    
    227 O     s    0.153300 *  0.836700 *  0.599450 *  -2.86902    1.000000    
    228 O     s    0.063300 *  0.889500 *  0.865700 *  -2.86902    1.000000    
    229 O     s    0.157700 *  0.866100 *  0.745100 *  -2.86902    1.000000    
    230 O     s    0.241900 *  0.000000 *  0.840200 *  -2.86902    1.000000    
    231 O     s    0.136800 *  0.000000 *  0.648250 *  -2.86902    1.000000    
    232 O     s    0.000000 *  0.273400 *  0.500000 *  -2.86902    1.000000    
    233 O     s    0.190600 *  0.335900 *  0.614250 *  -2.86902    1.000000    
    234 O     s    0.153300 *  0.163300 *  0.599450 *  -2.86902    1.000000    
    235 O     s    0.063300 *  0.110500 *  0.865700 *  -2.86902    1.000000    
    236 O     s    0.157700 *  0.133900 *  0.745100 *  -2.86902    1.000000    
    237 O     s    0.809400 *  0.335900 *  0.885750 *  -2.86902    1.000000    
    238 O     s    0.846700 *  0.163300 *  0.900550 *  -2.86902    1.000000    
    239 O     s    0.936700 *  0.110500 *  0.634300 *  -2.86902    1.000000    
    240 O     s    0.842300 *  0.133900 *  0.754900 *  -2.86902    1.000000    
--------------------------------------------------------------------------------



********************************************************************************
*  General input information                                                   *
********************************************************************************

  Species output for all configurations : 

--------------------------------------------------------------------------------
  Species    Type    Atomic    Atomic    Charge       Radii (Angs)     Library
                     Number     Mass       (e)     Cova   Ionic  VDW   Symbol
--------------------------------------------------------------------------------
    O        Core        8      16.00   0.869020   0.730  0.000  1.360 O        
    O        Shell       8       0.00  -2.869020   0.730  0.000  0.000 O        
    Si       Core       14      28.09   4.000000   1.200  0.000  2.100 Si       
--------------------------------------------------------------------------------


  Lattice summation method               =    Ewald          (3-D)
                                         =    Parry          (2-D)
                                         =    Saunders et al (1-D)
  Accuracy factor for lattice sums       =   12.000


  Analytic derivatives to be used

  Time limit = Infinity

  Maximum range for interatomic potentials =    100000.000000 Angstroms

  General interatomic potentials :

--------------------------------------------------------------------------------
Atom  Types   Potential      Parameter       Value         Units   Cutoffs(Ang)
  1     2                                                            Min /  Max 
--------------------------------------------------------------------------------
Si   c O    s Buckingham    Buckingham A     1283.9070    eV        0.000 10.000
                            Buckingham rho  0.32052000    Ang       
                            Buckingham C     10.661580    eV*Ang^6  
--------------------------------------------------------------------------------
O    s O    s Buckingham    Buckingham A     22764.000    eV        0.000 12.000
                            Buckingham rho  0.14900000    Ang       
                            Buckingham C     27.879000    eV*Ang^6  
--------------------------------------------------------------------------------
O    c O    s Spring (c-s)  Spring k 2       74.920000    eV*Ang^-2 0.000  1.100
                            Spring k 4       0.0000000    eV*Ang^-4 
--------------------------------------------------------------------------------

  General Three-body potentials :

--------------------------------------------------------------------------------
  Atoms       Potential      Parameter       Value         Units   Cutoffs(Ang)
  1 / 2 / 3                                                          Min /  Max 
--------------------------------------------------------------------------------
Si    core    Harmonic      Three-body cnst  2.0972400    eV*rad^-2 0.000  1.900
O     shel                  Three-body angl  109.47000    degrees   0.000  1.900
O     shel                  Three-body k4    0.0000000    eV*rad^-4 0.000  3.500
                            Three-body k3    0.0000000    eV*rad^-3 
--------------------------------------------------------------------------------
Si    core    Harmonic      Three-body cnst  2.0972400    eV*rad^-2 0.000  1.900
O     shel                  Three-body angl  109.47000    degrees   0.000  1.900
õ(    shel                  Three-body k4    0.0000000    eV*rad^-4 0.000  3.500
                            Three-body k3    0.0000000    eV*rad^-3 
--------------------------------------------------------------------------------
Si    core    Harmonic      Three-body cnst  2.0972400    eV*rad^-2 0.000  1.900
õ(    shel                  Three-body angl  109.47000    degrees   0.000  1.900
õ(    shel                  Three-body k4    0.0000000    eV*rad^-4 0.000  3.500
                            Three-body k3    0.0000000    eV*rad^-3 
--------------------------------------------------------------------------------

********************************************************************************
*  Output for configuration   1 : ReferenceDataBase/ITW                        *
********************************************************************************


  Components of energy : 

--------------------------------------------------------------------------------
  Interatomic potentials     =        1481.68507394 eV    
  Three-body potentials      =           0.00989791 eV    
  Monopole - monopole (real) =       -5712.84388982 eV    
  Monopole - monopole (recip)=       -1877.73288188 eV    
  Monopole - monopole (total)=       -7590.57677170 eV    
--------------------------------------------------------------------------------
  Total lattice energy       =       -6108.88179985 eV    
--------------------------------------------------------------------------------
  Total lattice energy       =         -589413.7109 kJ/(mole unit cells)
--------------------------------------------------------------------------------


  Number of variables =      288

  Maximum number of calculations  =           500
  Maximum Hessian update interval =            10
  Maximum step size               =   0.100000000
  Maximum parameter tolerance     =   0.000010000
  Maximum function  tolerance     =   0.000010000
  Maximum gradient  tolerance     =   0.001000000
  Maximum gradient  component     =   0.010000000

  Newton-Raphson optimiser to be used

  BFGS hessian update to be used

  Lower half triangular hessian to be used

  Minimiser to switch to RFO
  When gradient norm is less than     0.080000

  Switch max step size to       0.30000000 when gnorm is less than     0.005000

  Shell only optimisation

  Dumpfile to be written after every cycle

  Start of bulk optimisation :

  Cycle:      0 Energy:     -6108.881800  Gnorm:      6.555301  CPU:    0.638
  ** Hessian calculated **
  Cycle:      1 Energy:     -6166.895142  Gnorm:      1.229026  CPU:    1.453
  ** Hessian calculated **
  Cycle:      2 Energy:     -6168.519629  Gnorm:      0.613856  CPU:    2.465
  Cycle:      3 Energy:     -6168.925286  Gnorm:      0.306452  CPU:    3.025
  Cycle:      4 Energy:     -6169.026425  Gnorm:      0.153113  CPU:    3.596
  Cycle:      5 Energy:     -6169.051679  Gnorm:      0.076530  CPU:    4.162
  ** Hessian has required structure
  ** Hessian has required structure
  Cycle:      6 Energy:     -6169.057990  Gnorm:      0.038263  CPU:    5.259
  ** Hessian has required structure
  Cycle:      7 Energy:     -6169.059567  Gnorm:      0.019130  CPU:    5.845
  ** Hessian has required structure
  Cycle:      8 Energy:     -6169.059962  Gnorm:      0.009564  CPU:    6.443
  ** Hessian has required structure
  Cycle:      9 Energy:     -6169.060060  Gnorm:      0.004782  CPU:    7.045
  ** Hessian has required structure
  Cycle:     10 Energy:     -6169.060093  Gnorm:      0.000000  CPU:    7.549
  ** Hessian has required structure


  **** Optimisation achieved ****


  Final energy =   -6169.06009324 eV      
  Final Gnorm  =       0.00000015

  Components of energy : 

--------------------------------------------------------------------------------
  Interatomic potentials     =        1621.93877095 eV    
  Three-body potentials      =           1.09147492 eV    
  Monopole - monopole (real) =       -5197.60015892 eV    
  Monopole - monopole (recip)=       -2594.49018019 eV    
  Monopole - monopole (total)=       -7792.09033911 eV    
--------------------------------------------------------------------------------
  Total lattice energy       =       -6169.06009324 eV    
--------------------------------------------------------------------------------
  Total lattice energy       =         -595219.9963 kJ/(mole unit cells)
--------------------------------------------------------------------------------

  Final fractional coordinates of atoms :

--------------------------------------------------------------------------------
   No.  Atomic        x           y          z          Radius
        Label       (Frac)      (Frac)     (Frac)       (Angs) 
--------------------------------------------------------------------------------
     1  O     c     0.500000    0.226600    0.000000    0.000000
     2  O     c     0.309400    0.164100    0.385750    0.000000
     3  O     c     0.346700    0.336700    0.400550    0.000000
     4  O     c     0.250000    0.250000    0.000000    0.000000
     5  O     c     0.436700    0.389500    0.134300    0.000000
     6  O     c     0.342300    0.366100    0.254900    0.000000
     7  O     c     0.258100    0.500000    0.159800    0.000000
     8  O     c     0.363200    0.500000    0.351750    0.000000
     9  Si    c     0.351600    0.244500    0.446950    0.000000
    10  Si    c     0.306700    0.397900    0.165850    0.000000
    11  Si    c     0.403900    0.397900    0.343150    0.000000
    12  O     c     0.690600    0.164100    0.114250    0.000000
    13  O     c     0.653300    0.336700    0.099450    0.000000
    14  O     c     0.750000    0.250000    0.000000    0.000000
    15  O     c     0.563300    0.389500    0.365700    0.000000
    16  O     c     0.657700    0.366100    0.245100    0.000000
    17  O     c     0.741900    0.500000    0.340200    0.000000
    18  O     c     0.636800    0.500000    0.148250    0.000000
    19  Si    c     0.648400    0.244500    0.053050    0.000000
    20  Si    c     0.693300    0.397900    0.334150    0.000000
    21  Si    c     0.596100    0.397900    0.156850    0.000000
    22  O     c     0.500000    0.773400    0.000000    0.000000
    23  O     c     0.690600    0.835900    0.114250    0.000000
    24  O     c     0.653300    0.663300    0.099450    0.000000
    25  O     c     0.750000    0.750000    0.000000    0.000000
    26  O     c     0.563300    0.610500    0.365700    0.000000
    27  O     c     0.657700    0.633900    0.245100    0.000000
    28  Si    c     0.648400    0.755500    0.053050    0.000000
    29  Si    c     0.693300    0.602100    0.334150    0.000000
    30  Si    c     0.596100    0.602100    0.156850    0.000000
    31  O     c     0.309400    0.835900    0.385750    0.000000
    32  O     c     0.346700    0.663300    0.400550    0.000000
    33  O     c     0.250000    0.750000    0.000000    0.000000
    34  O     c     0.436700    0.610500    0.134300    0.000000
    35  O     c     0.342300    0.633900    0.254900    0.000000
    36  Si    c     0.351600    0.755500    0.446950    0.000000
    37  Si    c     0.306700    0.602100    0.165850    0.000000
    38  Si    c     0.403900    0.602100    0.343150    0.000000
    39  O     c     0.000000    0.726600    0.000000    0.000000
    40  O     c     0.809400    0.664100    0.385750    0.000000
    41  O     c     0.846700    0.836700    0.400550    0.000000
    42  O     c     0.936700    0.889500    0.134300    0.000000
    43  O     c     0.842300    0.866100    0.254900    0.000000
    44  O     c     0.758100    0.000000    0.159800    0.000000
    45  O     c     0.863200    0.000000    0.351750    0.000000
    46  Si    c     0.851600    0.744500    0.446950    0.000000
    47  Si    c     0.806700    0.897900    0.165850    0.000000
    48  Si    c     0.903900    0.897900    0.343150    0.000000
    49  O     c     0.190600    0.664100    0.114250    0.000000
    50  O     c     0.153300    0.836700    0.099450    0.000000
    51  O     c     0.063300    0.889500    0.365700    0.000000
    52  O     c     0.157700    0.866100    0.245100    0.000000
    53  O     c     0.241900    0.000000    0.340200    0.000000
    54  O     c     0.136800    0.000000    0.148250    0.000000
    55  Si    c     0.148400    0.744500    0.053050    0.000000
    56  Si    c     0.193300    0.897900    0.334150    0.000000
    57  Si    c     0.096100    0.897900    0.156850    0.000000
    58  O     c     0.000000    0.273400    0.000000    0.000000
    59  O     c     0.190600    0.335900    0.114250    0.000000
    60  O     c     0.153300    0.163300    0.099450    0.000000
    61  O     c     0.063300    0.110500    0.365700    0.000000
    62  O     c     0.157700    0.133900    0.245100    0.000000
    63  Si    c     0.148400    0.255500    0.053050    0.000000
    64  Si    c     0.193300    0.102100    0.334150    0.000000
    65  Si    c     0.096100    0.102100    0.156850    0.000000
    66  O     c     0.809400    0.335900    0.385750    0.000000
    67  O     c     0.846700    0.163300    0.400550    0.000000
    68  O     c     0.936700    0.110500    0.134300    0.000000
    69  O     c     0.842300    0.133900    0.254900    0.000000
    70  Si    c     0.851600    0.255500    0.446950    0.000000
    71  Si    c     0.806700    0.102100    0.165850    0.000000
    72  Si    c     0.903900    0.102100    0.343150    0.000000
    73  O     c     0.500000    0.226600    0.500000    0.000000
    74  O     c     0.309400    0.164100    0.885750    0.000000
    75  O     c     0.346700    0.336700    0.900550    0.000000
    76  O     c     0.250000    0.250000    0.500000    0.000000
    77  O     c     0.436700    0.389500    0.634300    0.000000
    78  O     c     0.342300    0.366100    0.754900    0.000000
    79  O     c     0.258100    0.500000    0.659800    0.000000
    80  O     c     0.363200    0.500000    0.851750    0.000000
    81  Si    c     0.351600    0.244500    0.946950    0.000000
    82  Si    c     0.306700    0.397900    0.665850    0.000000
    83  Si    c     0.403900    0.397900    0.843150    0.000000
    84  O     c     0.690600    0.164100    0.614250    0.000000
    85  O     c     0.653300    0.336700    0.599450    0.000000
    86  O     c     0.750000    0.250000    0.500000    0.000000
    87  O     c     0.563300    0.389500    0.865700    0.000000
    88  O     c     0.657700    0.366100    0.745100    0.000000
    89  O     c     0.741900    0.500000    0.840200    0.000000
    90  O     c     0.636800    0.500000    0.648250    0.000000
    91  Si    c     0.648400    0.244500    0.553050    0.000000
    92  Si    c     0.693300    0.397900    0.834150    0.000000
    93  Si    c     0.596100    0.397900    0.656850    0.000000
    94  O     c     0.500000    0.773400    0.500000    0.000000
    95  O     c     0.690600    0.835900    0.614250    0.000000
    96  O     c     0.653300    0.663300    0.599450    0.000000
    97  O     c     0.750000    0.750000    0.500000    0.000000
    98  O     c     0.563300    0.610500    0.865700    0.000000
    99  O     c     0.657700    0.633900    0.745100    0.000000
   100  Si    c     0.648400    0.755500    0.553050    0.000000
   101  Si    c     0.693300    0.602100    0.834150    0.000000
   102  Si    c     0.596100    0.602100    0.656850    0.000000
   103  O     c     0.309400    0.835900    0.885750    0.000000
   104  O     c     0.346700    0.663300    0.900550    0.000000
   105  O     c     0.250000    0.750000    0.500000    0.000000
   106  O     c     0.436700    0.610500    0.634300    0.000000
   107  O     c     0.342300    0.633900    0.754900    0.000000
   108  Si    c     0.351600    0.755500    0.946950    0.000000
   109  Si    c     0.306700    0.602100    0.665850    0.000000
   110  Si    c     0.403900    0.602100    0.843150    0.000000
   111  O     c     0.000000    0.726600    0.500000    0.000000
   112  O     c     0.809400    0.664100    0.885750    0.000000
   113  O     c     0.846700    0.836700    0.900550    0.000000
   114  O     c     0.936700    0.889500    0.634300    0.000000
   115  O     c     0.842300    0.866100    0.754900    0.000000
   116  O     c     0.758100    0.000000    0.659800    0.000000
   117  O     c     0.863200    0.000000    0.851750    0.000000
   118  Si    c     0.851600    0.744500    0.946950    0.000000
   119  Si    c     0.806700    0.897900    0.665850    0.000000
   120  Si    c     0.903900    0.897900    0.843150    0.000000
   121  O     c     0.190600    0.664100    0.614250    0.000000
   122  O     c     0.153300    0.836700    0.599450    0.000000
   123  O     c     0.063300    0.889500    0.865700    0.000000
   124  O     c     0.157700    0.866100    0.745100    0.000000
   125  O     c     0.241900    0.000000    0.840200    0.000000
   126  O     c     0.136800    0.000000    0.648250    0.000000
   127  Si    c     0.148400    0.744500    0.553050    0.000000
   128  Si    c     0.193300    0.897900    0.834150    0.000000
   129  Si    c     0.096100    0.897900    0.656850    0.000000
   130  O     c     0.000000    0.273400    0.500000    0.000000
   131  O     c     0.190600    0.335900    0.614250    0.000000
   132  O     c     0.153300    0.163300    0.599450    0.000000
   133  O     c     0.063300    0.110500    0.865700    0.000000
   134  O     c     0.157700    0.133900    0.745100    0.000000
   135  Si    c     0.148400    0.255500    0.553050    0.000000
   136  Si    c     0.193300    0.102100    0.834150    0.000000
   137  Si    c     0.096100    0.102100    0.656850    0.000000
   138  O     c     0.809400    0.335900    0.885750    0.000000
   139  O     c     0.846700    0.163300    0.900550    0.000000
   140  O     c     0.936700    0.110500    0.634300    0.000000
   141  O     c     0.842300    0.133900    0.754900    0.000000
   142  Si    c     0.851600    0.255500    0.946950    0.000000
   143  Si    c     0.806700    0.102100    0.665850    0.000000
   144  Si    c     0.903900    0.102100    0.843150    0.000000
   145  O     s     0.500000    0.230345    0.000000    0.000000
   146  O     s     0.301176    0.165892    0.386652    0.000000
   147  O     s     0.353575    0.333551    0.399172    0.000000
   148  O     s     0.250000    0.250000    0.000000    0.000000
   149  O     s     0.440082    0.391214    0.140197    0.000000
   150  O     s     0.344923    0.373099    0.254770    0.000000
   151  O     s     0.268467    0.500000    0.161004    0.000000
   152  O     s     0.372015    0.500000    0.350092    0.000000
   153  O     s     0.698824    0.165892    0.113348    0.000000
   154  O     s     0.646425    0.333551    0.100828    0.000000
   155  O     s     0.750000    0.250000    0.000000    0.000000
   156  O     s     0.559918    0.391214    0.359803    0.000000
   157  O     s     0.655077    0.373099    0.245230    0.000000
   158  O     s     0.731533    0.500000    0.338996    0.000000
   159  O     s     0.627985    0.500000    0.149908    0.000000
   160  O     s     0.500000    0.769655    0.000000    0.000000
   161  O     s     0.698824    0.834108    0.113348    0.000000
   162  O     s     0.646425    0.666449    0.100828    0.000000
   163  O     s     0.750000    0.750000    0.000000    0.000000
   164  O     s     0.559918    0.608786    0.359803    0.000000
   165  O     s     0.655077    0.626901    0.245230    0.000000
   166  O     s     0.301176    0.834108    0.386652    0.000000
   167  O     s     0.353575    0.666449    0.399172    0.000000
   168  O     s     0.250000    0.750000    0.000000    0.000000
   169  O     s     0.440082    0.608786    0.140197    0.000000
   170  O     s     0.344923    0.626901    0.254770    0.000000
   171  O     s     0.000000    0.730345    0.000000    0.000000
   172  O     s     0.801176    0.665892    0.386652    0.000000
   173  O     s     0.853575    0.833551    0.399172    0.000000
   174  O     s     0.940082    0.891214    0.140197    0.000000
   175  O     s     0.844923    0.873099    0.254770    0.000000
   176  O     s     0.768467    0.000000    0.161004    0.000000
   177  O     s     0.872015    0.000000    0.350092    0.000000
   178  O     s     0.198824    0.665892    0.113348    0.000000
   179  O     s     0.146425    0.833551    0.100828    0.000000
   180  O     s     0.059918    0.891214    0.359803    0.000000
   181  O     s     0.155077    0.873099    0.245230    0.000000
   182  O     s     0.231533    1.000000    0.338996    0.000000
   183  O     s     0.127985    0.000000    0.149908    0.000000
   184  O     s     1.000000    0.269655    0.000000    0.000000
   185  O     s     0.198824    0.334108    0.113348    0.000000
   186  O     s     0.146425    0.166449    0.100828    0.000000
   187  O     s     0.059918    0.108786    0.359803    0.000000
   188  O     s     0.155077    0.126901    0.245230    0.000000
   189  O     s     0.801176    0.334108    0.386652    0.000000
   190  O     s     0.853575    0.166449    0.399172    0.000000
   191  O     s     0.940082    0.108786    0.140197    0.000000
   192  O     s     0.844923    0.126901    0.254770    0.000000
   193  O     s     0.500000    0.230345    0.500000    0.000000
   194  O     s     0.301176    0.165892    0.886652    0.000000
   195  O     s     0.353575    0.333551    0.899172    0.000000
   196  O     s     0.250000    0.250000    0.500000    0.000000
   197  O     s     0.440082    0.391214    0.640197    0.000000
   198  O     s     0.344923    0.373099    0.754770    0.000000
   199  O     s     0.268467    0.500000    0.661004    0.000000
   200  O     s     0.372015    0.500000    0.850092    0.000000
   201  O     s     0.698824    0.165892    0.613348    0.000000
   202  O     s     0.646425    0.333551    0.600828    0.000000
   203  O     s     0.750000    0.250000    0.500000    0.000000
   204  O     s     0.559918    0.391214    0.859803    0.000000
   205  O     s     0.655077    0.373099    0.745230    0.000000
   206  O     s     0.731533    0.500000    0.838996    0.000000
   207  O     s     0.627985    0.500000    0.649908    0.000000
   208  O     s     0.500000    0.769655    0.500000    0.000000
   209  O     s     0.698824    0.834108    0.613348    0.000000
   210  O     s     0.646425    0.666449    0.600828    0.000000
   211  O     s     0.750000    0.750000    0.500000    0.000000
   212  O     s     0.559918    0.608786    0.859803    0.000000
   213  O     s     0.655077    0.626901    0.745230    0.000000
   214  O     s     0.301176    0.834108    0.886652    0.000000
   215  O     s     0.353575    0.666449    0.899172    0.000000
   216  O     s     0.250000    0.750000    0.500000    0.000000
   217  O     s     0.440082    0.608786    0.640197    0.000000
   218  O     s     0.344923    0.626901    0.754770    0.000000
   219  O     s     0.000000    0.730345    0.500000    0.000000
   220  O     s     0.801176    0.665892    0.886652    0.000000
   221  O     s     0.853575    0.833551    0.899172    0.000000
   222  O     s     0.940082    0.891214    0.640197    0.000000
   223  O     s     0.844923    0.873099    0.754770    0.000000
   224  O     s     0.768467    1.000000    0.661004    0.000000
   225  O     s     0.872015    0.000000    0.850092    0.000000
   226  O     s     0.198824    0.665892    0.613348    0.000000
   227  O     s     0.146425    0.833551    0.600828    0.000000
   228  O     s     0.059918    0.891214    0.859803    0.000000
   229  O     s     0.155077    0.873099    0.745230    0.000000
   230  O     s     0.231533    0.000000    0.838996    0.000000
   231  O     s     0.127985    0.000000    0.649908    0.000000
   232  O     s     0.000000    0.269655    0.500000    0.000000
   233  O     s     0.198824    0.334108    0.613348    0.000000
   234  O     s     0.146425    0.166449    0.600828    0.000000
   235  O     s     0.059918    0.108786    0.859803    0.000000
   236  O     s     0.155077    0.126901    0.745230    0.000000
   237  O     s     0.801176    0.334108    0.886652    0.000000
   238  O     s     0.853575    0.166449    0.899172    0.000000
   239  O     s     0.940082    0.108786    0.640197    0.000000
   240  O     s     0.844923    0.126901    0.754770    0.000000
--------------------------------------------------------------------------------

  Final internal derivatives :

--------------------------------------------------------------------------------
   No.  Atomic          a             b             c           Radius
        Label          (eV)          (eV)          (eV)        (eV/Angs)
--------------------------------------------------------------------------------
      1 O     c       0.000000      0.000000      0.000000      0.000000
      2 O     c       0.000000      0.000000      0.000000      0.000000
      3 O     c       0.000000      0.000000      0.000000      0.000000
      4 O     c       0.000000      0.000000      0.000000      0.000000
      5 O     c       0.000000      0.000000      0.000000      0.000000
      6 O     c       0.000000      0.000000      0.000000      0.000000
      7 O     c       0.000000      0.000000      0.000000      0.000000
      8 O     c       0.000000      0.000000      0.000000      0.000000
      9 Si    c       0.000000      0.000000      0.000000      0.000000
     10 Si    c       0.000000      0.000000      0.000000      0.000000
     11 Si    c       0.000000      0.000000      0.000000      0.000000
     12 O     c       0.000000      0.000000      0.000000      0.000000
     13 O     c       0.000000      0.000000      0.000000      0.000000
     14 O     c       0.000000      0.000000      0.000000      0.000000
     15 O     c       0.000000      0.000000      0.000000      0.000000
     16 O     c       0.000000      0.000000      0.000000      0.000000
     17 O     c       0.000000      0.000000      0.000000      0.000000
     18 O     c       0.000000      0.000000      0.000000      0.000000
     19 Si    c       0.000000      0.000000      0.000000      0.000000
     20 Si    c       0.000000      0.000000      0.000000      0.000000
     21 Si    c       0.000000      0.000000      0.000000      0.000000
     22 O     c       0.000000      0.000000      0.000000      0.000000
     23 O     c       0.000000      0.000000      0.000000      0.000000
     24 O     c       0.000000      0.000000      0.000000      0.000000
     25 O     c       0.000000      0.000000      0.000000      0.000000
     26 O     c       0.000000      0.000000      0.000000      0.000000
     27 O     c       0.000000      0.000000      0.000000      0.000000
     28 Si    c       0.000000      0.000000      0.000000      0.000000
     29 Si    c       0.000000      0.000000      0.000000      0.000000
     30 Si    c       0.000000      0.000000      0.000000      0.000000
     31 O     c       0.000000      0.000000      0.000000      0.000000
     32 O     c       0.000000      0.000000      0.000000      0.000000
     33 O     c       0.000000      0.000000      0.000000      0.000000
     34 O     c       0.000000      0.000000      0.000000      0.000000
     35 O     c       0.000000      0.000000      0.000000      0.000000
     36 Si    c       0.000000      0.000000      0.000000      0.000000
     37 Si    c       0.000000      0.000000      0.000000      0.000000
     38 Si    c       0.000000      0.000000      0.000000      0.000000
     39 O     c       0.000000      0.000000      0.000000      0.000000
     40 O     c       0.000000      0.000000      0.000000      0.000000
     41 O     c       0.000000      0.000000      0.000000      0.000000
     42 O     c       0.000000      0.000000      0.000000      0.000000
     43 O     c       0.000000      0.000000      0.000000      0.000000
     44 O     c       0.000000      0.000000      0.000000      0.000000
     45 O     c       0.000000      0.000000      0.000000      0.000000
     46 Si    c       0.000000      0.000000      0.000000      0.000000
     47 Si    c       0.000000      0.000000      0.000000      0.000000
     48 Si    c       0.000000      0.000000      0.000000      0.000000
     49 O     c       0.000000      0.000000      0.000000      0.000000
     50 O     c       0.000000      0.000000      0.000000      0.000000
     51 O     c       0.000000      0.000000      0.000000      0.000000
     52 O     c       0.000000      0.000000      0.000000      0.000000
     53 O     c       0.000000      0.000000      0.000000      0.000000
     54 O     c       0.000000      0.000000      0.000000      0.000000
     55 Si    c       0.000000      0.000000      0.000000      0.000000
     56 Si    c       0.000000      0.000000      0.000000      0.000000
     57 Si    c       0.000000      0.000000      0.000000      0.000000
     58 O     c       0.000000      0.000000      0.000000      0.000000
     59 O     c       0.000000      0.000000      0.000000      0.000000
     60 O     c       0.000000      0.000000      0.000000      0.000000
     61 O     c       0.000000      0.000000      0.000000      0.000000
     62 O     c       0.000000      0.000000      0.000000      0.000000
     63 Si    c       0.000000      0.000000      0.000000      0.000000
     64 Si    c       0.000000      0.000000      0.000000      0.000000
     65 Si    c       0.000000      0.000000      0.000000      0.000000
     66 O     c       0.000000      0.000000      0.000000      0.000000
     67 O     c       0.000000      0.000000      0.000000      0.000000
     68 O     c       0.000000      0.000000      0.000000      0.000000
     69 O     c       0.000000      0.000000      0.000000      0.000000
     70 Si    c       0.000000      0.000000      0.000000      0.000000
     71 Si    c       0.000000      0.000000      0.000000      0.000000
     72 Si    c       0.000000      0.000000      0.000000      0.000000
     73 O     c       0.000000      0.000000      0.000000      0.000000
     74 O     c       0.000000      0.000000      0.000000      0.000000
     75 O     c       0.000000      0.000000      0.000000      0.000000
     76 O     c       0.000000      0.000000      0.000000      0.000000
     77 O     c       0.000000      0.000000      0.000000      0.000000
     78 O     c       0.000000      0.000000      0.000000      0.000000
     79 O     c       0.000000      0.000000      0.000000      0.000000
     80 O     c       0.000000      0.000000      0.000000      0.000000
     81 Si    c       0.000000      0.000000      0.000000      0.000000
     82 Si    c       0.000000      0.000000      0.000000      0.000000
     83 Si    c       0.000000      0.000000      0.000000      0.000000
     84 O     c       0.000000      0.000000      0.000000      0.000000
     85 O     c       0.000000      0.000000      0.000000      0.000000
     86 O     c       0.000000      0.000000      0.000000      0.000000
     87 O     c       0.000000      0.000000      0.000000      0.000000
     88 O     c       0.000000      0.000000      0.000000      0.000000
     89 O     c       0.000000      0.000000      0.000000      0.000000
     90 O     c       0.000000      0.000000      0.000000      0.000000
     91 Si    c       0.000000      0.000000      0.000000      0.000000
     92 Si    c       0.000000      0.000000      0.000000      0.000000
     93 Si    c       0.000000      0.000000      0.000000      0.000000
     94 O     c       0.000000      0.000000      0.000000      0.000000
     95 O     c       0.000000      0.000000      0.000000      0.000000
     96 O     c       0.000000      0.000000      0.000000      0.000000
     97 O     c       0.000000      0.000000      0.000000      0.000000
     98 O     c       0.000000      0.000000      0.000000      0.000000
     99 O     c       0.000000      0.000000      0.000000      0.000000
    100 Si    c       0.000000      0.000000      0.000000      0.000000
    101 Si    c       0.000000      0.000000      0.000000      0.000000
    102 Si    c       0.000000      0.000000      0.000000      0.000000
    103 O     c       0.000000      0.000000      0.000000      0.000000
    104 O     c       0.000000      0.000000      0.000000      0.000000
    105 O     c       0.000000      0.000000      0.000000      0.000000
    106 O     c       0.000000      0.000000      0.000000      0.000000
    107 O     c       0.000000      0.000000      0.000000      0.000000
    108 Si    c       0.000000      0.000000      0.000000      0.000000
    109 Si    c       0.000000      0.000000      0.000000      0.000000
    110 Si    c       0.000000      0.000000      0.000000      0.000000
    111 O     c       0.000000      0.000000      0.000000      0.000000
    112 O     c       0.000000      0.000000      0.000000      0.000000
    113 O     c       0.000000      0.000000      0.000000      0.000000
    114 O     c       0.000000      0.000000      0.000000      0.000000
    115 O     c       0.000000      0.000000      0.000000      0.000000
    116 O     c       0.000000      0.000000      0.000000      0.000000
    117 O     c       0.000000      0.000000      0.000000      0.000000
    118 Si    c       0.000000      0.000000      0.000000      0.000000
    119 Si    c       0.000000      0.000000      0.000000      0.000000
    120 Si    c       0.000000      0.000000      0.000000      0.000000
    121 O     c       0.000000      0.000000      0.000000      0.000000
    122 O     c       0.000000      0.000000      0.000000      0.000000
    123 O     c       0.000000      0.000000      0.000000      0.000000
    124 O     c       0.000000      0.000000      0.000000      0.000000
    125 O     c       0.000000      0.000000      0.000000      0.000000
    126 O     c       0.000000      0.000000      0.000000      0.000000
    127 Si    c       0.000000      0.000000      0.000000      0.000000
    128 Si    c       0.000000      0.000000      0.000000      0.000000
    129 Si    c       0.000000      0.000000      0.000000      0.000000
    130 O     c       0.000000      0.000000      0.000000      0.000000
    131 O     c       0.000000      0.000000      0.000000      0.000000
    132 O     c       0.000000      0.000000      0.000000      0.000000
    133 O     c       0.000000      0.000000      0.000000      0.000000
    134 O     c       0.000000      0.000000      0.000000      0.000000
    135 Si    c       0.000000      0.000000      0.000000      0.000000
    136 Si    c       0.000000      0.000000      0.000000      0.000000
    137 Si    c       0.000000      0.000000      0.000000      0.000000
    138 O     c       0.000000      0.000000      0.000000      0.000000
    139 O     c       0.000000      0.000000      0.000000      0.000000
    140 O     c       0.000000      0.000000      0.000000      0.000000
    141 O     c       0.000000      0.000000      0.000000      0.000000
    142 Si    c       0.000000      0.000000      0.000000      0.000000
    143 Si    c       0.000000      0.000000      0.000000      0.000000
    144 Si    c       0.000000      0.000000      0.000000      0.000000
    145 O     s      -0.000000      0.000001      0.000000      0.000000
    146 O     s      -0.000001     -0.000001      0.000001      0.000000
    147 O     s       0.000001      0.000001      0.000000      0.000000
    148 O     s       0.000000     -0.000000      0.000000      0.000000
    149 O     s       0.000000      0.000005      0.000003      0.000000
    150 O     s       0.000004      0.000004     -0.000002      0.000000
    151 O     s       0.000003     -0.000000      0.000005      0.000000
    152 O     s       0.000002     -0.000000     -0.000007      0.000000
    153 O     s       0.000001     -0.000001     -0.000001      0.000000
    154 O     s      -0.000001      0.000001     -0.000000      0.000000
    155 O     s       0.000000     -0.000000      0.000000      0.000000
    156 O     s      -0.000000      0.000005     -0.000003      0.000000
    157 O     s      -0.000004      0.000004      0.000002      0.000000
    158 O     s      -0.000003     -0.000000     -0.000005      0.000000
    159 O     s      -0.000002     -0.000000      0.000007      0.000000
    160 O     s       0.000000     -0.000001     -0.000000      0.000000
    161 O     s       0.000001      0.000001     -0.000001      0.000000
    162 O     s      -0.000001     -0.000001     -0.000000      0.000000
    163 O     s      -0.000000     -0.000000      0.000000      0.000000
    164 O     s      -0.000000     -0.000005     -0.000003      0.000000
    165 O     s      -0.000004     -0.000004      0.000002      0.000000
    166 O     s      -0.000001      0.000001      0.000001      0.000000
    167 O     s       0.000001     -0.000001      0.000000      0.000000
    168 O     s      -0.000000     -0.000000     -0.000000      0.000000
    169 O     s       0.000000     -0.000005      0.000003      0.000000
    170 O     s       0.000004     -0.000004     -0.000002      0.000000
    171 O     s       0.000000      0.000001      0.000000      0.000000
    172 O     s      -0.000001     -0.000001      0.000001      0.000000
    173 O     s       0.000001      0.000001      0.000000      0.000000
    174 O     s       0.000000      0.000005      0.000003      0.000000
    175 O     s       0.000004      0.000004     -0.000002      0.000000
    176 O     s       0.000003     -0.000000      0.000005      0.000000
    177 O     s       0.000002      0.000000     -0.000007      0.000000
    178 O     s       0.000001     -0.000001     -0.000001      0.000000
    179 O     s      -0.000001      0.000001     -0.000000      0.000000
    180 O     s      -0.000000      0.000005     -0.000003      0.000000
    181 O     s      -0.000004      0.000004      0.000002      0.000000
    182 O     s      -0.000003     -0.000000     -0.000005      0.000000
    183 O     s      -0.000002      0.000000      0.000007      0.000000
    184 O     s      -0.000000     -0.000001      0.000000      0.000000
    185 O     s       0.000001      0.000001     -0.000001      0.000000
    186 O     s      -0.000001     -0.000001     -0.000000      0.000000
    187 O     s      -0.000000     -0.000005     -0.000003      0.000000
    188 O     s      -0.000004     -0.000004      0.000002      0.000000
    189 O     s      -0.000001      0.000001      0.000001      0.000000
    190 O     s       0.000001     -0.000001      0.000000      0.000000
    191 O     s       0.000000     -0.000005      0.000003      0.000000
    192 O     s       0.000004     -0.000004     -0.000002      0.000000
    193 O     s       0.000000      0.000001     -0.000000      0.000000
    194 O     s      -0.000001     -0.000001      0.000001      0.000000
    195 O     s       0.000001      0.000001      0.000000      0.000000
    196 O     s      -0.000000     -0.000000     -0.000000      0.000000
    197 O     s       0.000000      0.000005      0.000003      0.000000
    198 O     s       0.000004      0.000004     -0.000002      0.000000
    199 O     s       0.000003     -0.000000      0.000005      0.000000
    200 O     s       0.000002      0.000000     -0.000007      0.000000
    201 O     s       0.000001     -0.000001     -0.000001      0.000000
    202 O     s      -0.000001      0.000001     -0.000000      0.000000
    203 O     s      -0.000000     -0.000000      0.000000      0.000000
    204 O     s      -0.000000      0.000005     -0.000003      0.000000
    205 O     s      -0.000004      0.000004      0.000002      0.000000
    206 O     s      -0.000003     -0.000000     -0.000005      0.000000
    207 O     s      -0.000002     -0.000000      0.000007      0.000000
    208 O     s      -0.000000     -0.000001      0.000000      0.000000
    209 O     s       0.000001      0.000001     -0.000001      0.000000
    210 O     s      -0.000001     -0.000001     -0.000000      0.000000
    211 O     s       0.000000     -0.000000      0.000000      0.000000
    212 O     s      -0.000000     -0.000005     -0.000003      0.000000
    213 O     s      -0.000004     -0.000004      0.000002      0.000000
    214 O     s      -0.000001      0.000001      0.000001      0.000000
    215 O     s       0.000001     -0.000001      0.000000      0.000000
    216 O     s       0.000000     -0.000000      0.000000      0.000000
    217 O     s       0.000000     -0.000005      0.000003      0.000000
    218 O     s       0.000004     -0.000004     -0.000002      0.000000
    219 O     s      -0.000000      0.000001      0.000000      0.000000
    220 O     s      -0.000001     -0.000001      0.000001      0.000000
    221 O     s       0.000001      0.000001      0.000000      0.000000
    222 O     s       0.000000      0.000005      0.000003      0.000000
    223 O     s       0.000004      0.000004     -0.000002      0.000000
    224 O     s       0.000003     -0.000000      0.000005      0.000000
    225 O     s       0.000002      0.000000     -0.000007      0.000000
    226 O     s       0.000001     -0.000001     -0.000001      0.000000
    227 O     s      -0.000001      0.000001     -0.000000      0.000000
    228 O     s      -0.000000      0.000005     -0.000003      0.000000
    229 O     s      -0.000004      0.000004      0.000002      0.000000
    230 O     s      -0.000003      0.000000     -0.000005      0.000000
    231 O     s      -0.000002     -0.000000      0.000007      0.000000
    232 O     s       0.000000     -0.000001     -0.000000      0.000000
    233 O     s       0.000001      0.000001     -0.000001      0.000000
    234 O     s      -0.000001     -0.000001     -0.000000      0.000000
    235 O     s      -0.000000     -0.000005     -0.000003      0.000000
    236 O     s      -0.000004     -0.000004      0.000002      0.000000
    237 O     s      -0.000001      0.000001      0.000001      0.000000
    238 O     s       0.000001     -0.000001      0.000000      0.000000
    239 O     s       0.000000     -0.000005      0.000003      0.000000
    240 O     s       0.000004     -0.000004     -0.000002      0.000000
--------------------------------------------------------------------------------
  Maximum abs         0.000004      0.000005      0.000007      0.000000
--------------------------------------------------------------------------------


  Time to end of optimisation =       8.1720 seconds


  Peak dynamic memory used =       5.25 MB 


  Timing analysis for GULP :

--------------------------------------------------------------------------------
  Task / Subroutine                                          Time (Seconds)
--------------------------------------------------------------------------------
  Calculation of reciprocal space energy and derivatives          2.1237
  Calculation of real space energy and derivatives                5.0349
  Calculation of three-body energy and derivatives                0.6446
  Calculation and manipulation of Hessian matrix                  0.3297
  Calculation of matrix inversion                                 0.0078
  Symmetry generation of equivalent positions                     0.0002
--------------------------------------------------------------------------------
  Total CPU time                                                  8.1721
--------------------------------------------------------------------------------


  Dump file written as ReferenceDataBase/ITW.grs
  CIF file written as ReferenceDataBase/ITW_opt.cif


  Job Finished at 00:51.52  6th February   2024                               

