********************************************************************************
*                       GENERAL UTILITY LATTICE PROGRAM                        *
*                                 Julian Gale                                  *
*                       Curtin Institute for Computation                       *
*                    School of Molecular and Life Sciences                     *
*                    Curtin University, Western Australia                      *
********************************************************************************
* Version = 6.1.2 * Last modified =   3rd November 2022                        *
********************************************************************************
*  optimise     - perform optimisation run                                     *
*  conv         - constant volume calculation                                  *
*  shell        - only shells and radii to be optimised                        *
*  nosymmetry   - turn off symmetry after initial structure generation         *
********************************************************************************

  Job Started  at 00:51.53  6th February   2024                               

  Number of CPUs =     1


  Total number of configurations input =      1

********************************************************************************
*  Input for Configuration =   1 : ReferenceDataBase/SOD                       *
********************************************************************************

  Formula = O192Si96                                                    

  Number of irreducible atoms/shells =     480


  Total number atoms/shells =     480

  Dimensionality = 3               :  Bulk   



  Cartesian lattice vectors (Angstroms) :

       17.930000    0.000000    0.000000
        0.000000   17.930000    0.000000
        0.000000    0.000000   17.930000

  Cell parameters (Angstroms/Degrees):

  a =      17.9300    alpha =  90.0000
  b =      17.9300    beta  =  90.0000
  c =      17.9300    gamma =  90.0000

  Initial cell volume =        5764.224257 Angs**3

  Temperature of configuration =   0.00     K 

  Pressure of configuration =         0.000 GPa 

  Fractional coordinates of asymmetric unit :

--------------------------------------------------------------------------------
   No.  Atomic       x           y          z         Charge      Occupancy
        Label      (Frac)      (Frac)     (Frac)        (e)         (Frac)  
--------------------------------------------------------------------------------
      1 O     c    0.073350    0.250000    0.426650     0.86902    1.000000    
      2 Si    c    0.125000    0.250000    0.000000     4.00000    1.000000    
      3 O     c    0.250000    0.073350    0.426650     0.86902    1.000000    
      4 Si    c    0.250000    0.125000    0.000000     4.00000    1.000000    
      5 O     c    0.426650    0.250000    0.426650     0.86902    1.000000    
      6 Si    c    0.375000    0.250000    0.000000     4.00000    1.000000    
      7 O     c    0.250000    0.426650    0.426650     0.86902    1.000000    
      8 Si    c    0.250000    0.375000    0.000000     4.00000    1.000000    
      9 O     c    0.073350    0.250000    0.073350     0.86902    1.000000    
     10 O     c    0.250000    0.073350    0.073350     0.86902    1.000000    
     11 O     c    0.426650    0.250000    0.073350     0.86902    1.000000    
     12 O     c    0.250000    0.426650    0.073350     0.86902    1.000000    
     13 O     c    0.426650    0.073350    0.250000     0.86902    1.000000    
     14 Si    c    0.000000    0.125000    0.250000     4.00000    1.000000    
     15 O     c    0.426650    0.426650    0.250000     0.86902    1.000000    
     16 Si    c    0.375000    0.000000    0.250000     4.00000    1.000000    
     17 O     c    0.073350    0.426650    0.250000     0.86902    1.000000    
     18 Si    c    0.000000    0.375000    0.250000     4.00000    1.000000    
     19 O     c    0.073350    0.073350    0.250000     0.86902    1.000000    
     20 Si    c    0.125000    0.000000    0.250000     4.00000    1.000000    
     21 Si    c    0.250000    0.000000    0.125000     4.00000    1.000000    
     22 Si    c    0.250000    0.000000    0.375000     4.00000    1.000000    
     23 Si    c    0.000000    0.250000    0.375000     4.00000    1.000000    
     24 Si    c    0.000000    0.250000    0.125000     4.00000    1.000000    
     25 O     c    0.323350    0.000000    0.176650     0.86902    1.000000    
     26 O     c    0.000000    0.323350    0.176650     0.86902    1.000000    
     27 O     c    0.176650    0.000000    0.176650     0.86902    1.000000    
     28 O     c    0.000000    0.176650    0.176650     0.86902    1.000000    
     29 O     c    0.323350    0.000000    0.323350     0.86902    1.000000    
     30 O     c    0.000000    0.323350    0.323350     0.86902    1.000000    
     31 O     c    0.176650    0.000000    0.323350     0.86902    1.000000    
     32 O     c    0.000000    0.176650    0.323350     0.86902    1.000000    
     33 O     c    0.176650    0.323350    0.000000     0.86902    1.000000    
     34 O     c    0.176650    0.176650    0.000000     0.86902    1.000000    
     35 O     c    0.323350    0.176650    0.000000     0.86902    1.000000    
     36 O     c    0.323350    0.323350    0.000000     0.86902    1.000000    
     37 O     c    0.073350    0.250000    0.926650     0.86902    1.000000    
     38 Si    c    0.125000    0.250000    0.500000     4.00000    1.000000    
     39 O     c    0.250000    0.073350    0.926650     0.86902    1.000000    
     40 Si    c    0.250000    0.125000    0.500000     4.00000    1.000000    
     41 O     c    0.426650    0.250000    0.926650     0.86902    1.000000    
     42 Si    c    0.375000    0.250000    0.500000     4.00000    1.000000    
     43 O     c    0.250000    0.426650    0.926650     0.86902    1.000000    
     44 Si    c    0.250000    0.375000    0.500000     4.00000    1.000000    
     45 O     c    0.073350    0.250000    0.573350     0.86902    1.000000    
     46 O     c    0.250000    0.073350    0.573350     0.86902    1.000000    
     47 O     c    0.426650    0.250000    0.573350     0.86902    1.000000    
     48 O     c    0.250000    0.426650    0.573350     0.86902    1.000000    
     49 O     c    0.426650    0.073350    0.750000     0.86902    1.000000    
     50 Si    c    0.000000    0.125000    0.750000     4.00000    1.000000    
     51 O     c    0.426650    0.426650    0.750000     0.86902    1.000000    
     52 Si    c    0.375000    0.000000    0.750000     4.00000    1.000000    
     53 O     c    0.073350    0.426650    0.750000     0.86902    1.000000    
     54 Si    c    0.000000    0.375000    0.750000     4.00000    1.000000    
     55 O     c    0.073350    0.073350    0.750000     0.86902    1.000000    
     56 Si    c    0.125000    0.000000    0.750000     4.00000    1.000000    
     57 Si    c    0.250000    0.000000    0.625000     4.00000    1.000000    
     58 Si    c    0.250000    0.000000    0.875000     4.00000    1.000000    
     59 Si    c    0.000000    0.250000    0.875000     4.00000    1.000000    
     60 Si    c    0.000000    0.250000    0.625000     4.00000    1.000000    
     61 O     c    0.323350    0.000000    0.676650     0.86902    1.000000    
     62 O     c    0.000000    0.323350    0.676650     0.86902    1.000000    
     63 O     c    0.176650    0.000000    0.676650     0.86902    1.000000    
     64 O     c    0.000000    0.176650    0.676650     0.86902    1.000000    
     65 O     c    0.323350    0.000000    0.823350     0.86902    1.000000    
     66 O     c    0.000000    0.323350    0.823350     0.86902    1.000000    
     67 O     c    0.176650    0.000000    0.823350     0.86902    1.000000    
     68 O     c    0.000000    0.176650    0.823350     0.86902    1.000000    
     69 O     c    0.176650    0.323350    0.500000     0.86902    1.000000    
     70 O     c    0.176650    0.176650    0.500000     0.86902    1.000000    
     71 O     c    0.323350    0.176650    0.500000     0.86902    1.000000    
     72 O     c    0.323350    0.323350    0.500000     0.86902    1.000000    
     73 O     c    0.073350    0.750000    0.426650     0.86902    1.000000    
     74 Si    c    0.125000    0.750000    0.000000     4.00000    1.000000    
     75 O     c    0.250000    0.573350    0.426650     0.86902    1.000000    
     76 Si    c    0.250000    0.625000    0.000000     4.00000    1.000000    
     77 O     c    0.426650    0.750000    0.426650     0.86902    1.000000    
     78 Si    c    0.375000    0.750000    0.000000     4.00000    1.000000    
     79 O     c    0.250000    0.926650    0.426650     0.86902    1.000000    
     80 Si    c    0.250000    0.875000    0.000000     4.00000    1.000000    
     81 O     c    0.073350    0.750000    0.073350     0.86902    1.000000    
     82 O     c    0.250000    0.573350    0.073350     0.86902    1.000000    
     83 O     c    0.426650    0.750000    0.073350     0.86902    1.000000    
     84 O     c    0.250000    0.926650    0.073350     0.86902    1.000000    
     85 O     c    0.426650    0.573350    0.250000     0.86902    1.000000    
     86 Si    c    0.000000    0.625000    0.250000     4.00000    1.000000    
     87 O     c    0.426650    0.926650    0.250000     0.86902    1.000000    
     88 Si    c    0.375000    0.500000    0.250000     4.00000    1.000000    
     89 O     c    0.073350    0.926650    0.250000     0.86902    1.000000    
     90 Si    c    0.000000    0.875000    0.250000     4.00000    1.000000    
     91 O     c    0.073350    0.573350    0.250000     0.86902    1.000000    
     92 Si    c    0.125000    0.500000    0.250000     4.00000    1.000000    
     93 Si    c    0.250000    0.500000    0.125000     4.00000    1.000000    
     94 Si    c    0.250000    0.500000    0.375000     4.00000    1.000000    
     95 Si    c    0.000000    0.750000    0.375000     4.00000    1.000000    
     96 Si    c    0.000000    0.750000    0.125000     4.00000    1.000000    
     97 O     c    0.323350    0.500000    0.176650     0.86902    1.000000    
     98 O     c    0.000000    0.823350    0.176650     0.86902    1.000000    
     99 O     c    0.176650    0.500000    0.176650     0.86902    1.000000    
    100 O     c    0.000000    0.676650    0.176650     0.86902    1.000000    
    101 O     c    0.323350    0.500000    0.323350     0.86902    1.000000    
    102 O     c    0.000000    0.823350    0.323350     0.86902    1.000000    
    103 O     c    0.176650    0.500000    0.323350     0.86902    1.000000    
    104 O     c    0.000000    0.676650    0.323350     0.86902    1.000000    
    105 O     c    0.176650    0.823350    0.000000     0.86902    1.000000    
    106 O     c    0.176650    0.676650    0.000000     0.86902    1.000000    
    107 O     c    0.323350    0.676650    0.000000     0.86902    1.000000    
    108 O     c    0.323350    0.823350    0.000000     0.86902    1.000000    
    109 O     c    0.073350    0.750000    0.926650     0.86902    1.000000    
    110 Si    c    0.125000    0.750000    0.500000     4.00000    1.000000    
    111 O     c    0.250000    0.573350    0.926650     0.86902    1.000000    
    112 Si    c    0.250000    0.625000    0.500000     4.00000    1.000000    
    113 O     c    0.426650    0.750000    0.926650     0.86902    1.000000    
    114 Si    c    0.375000    0.750000    0.500000     4.00000    1.000000    
    115 O     c    0.250000    0.926650    0.926650     0.86902    1.000000    
    116 Si    c    0.250000    0.875000    0.500000     4.00000    1.000000    
    117 O     c    0.073350    0.750000    0.573350     0.86902    1.000000    
    118 O     c    0.250000    0.573350    0.573350     0.86902    1.000000    
    119 O     c    0.426650    0.750000    0.573350     0.86902    1.000000    
    120 O     c    0.250000    0.926650    0.573350     0.86902    1.000000    
    121 O     c    0.426650    0.573350    0.750000     0.86902    1.000000    
    122 Si    c    0.000000    0.625000    0.750000     4.00000    1.000000    
    123 O     c    0.426650    0.926650    0.750000     0.86902    1.000000    
    124 Si    c    0.375000    0.500000    0.750000     4.00000    1.000000    
    125 O     c    0.073350    0.926650    0.750000     0.86902    1.000000    
    126 Si    c    0.000000    0.875000    0.750000     4.00000    1.000000    
    127 O     c    0.073350    0.573350    0.750000     0.86902    1.000000    
    128 Si    c    0.125000    0.500000    0.750000     4.00000    1.000000    
    129 Si    c    0.250000    0.500000    0.625000     4.00000    1.000000    
    130 Si    c    0.250000    0.500000    0.875000     4.00000    1.000000    
    131 Si    c    0.000000    0.750000    0.875000     4.00000    1.000000    
    132 Si    c    0.000000    0.750000    0.625000     4.00000    1.000000    
    133 O     c    0.323350    0.500000    0.676650     0.86902    1.000000    
    134 O     c    0.000000    0.823350    0.676650     0.86902    1.000000    
    135 O     c    0.176650    0.500000    0.676650     0.86902    1.000000    
    136 O     c    0.000000    0.676650    0.676650     0.86902    1.000000    
    137 O     c    0.323350    0.500000    0.823350     0.86902    1.000000    
    138 O     c    0.000000    0.823350    0.823350     0.86902    1.000000    
    139 O     c    0.176650    0.500000    0.823350     0.86902    1.000000    
    140 O     c    0.000000    0.676650    0.823350     0.86902    1.000000    
    141 O     c    0.176650    0.823350    0.500000     0.86902    1.000000    
    142 O     c    0.176650    0.676650    0.500000     0.86902    1.000000    
    143 O     c    0.323350    0.676650    0.500000     0.86902    1.000000    
    144 O     c    0.323350    0.823350    0.500000     0.86902    1.000000    
    145 O     c    0.573350    0.250000    0.426650     0.86902    1.000000    
    146 Si    c    0.625000    0.250000    0.000000     4.00000    1.000000    
    147 O     c    0.750000    0.073350    0.426650     0.86902    1.000000    
    148 Si    c    0.750000    0.125000    0.000000     4.00000    1.000000    
    149 O     c    0.926650    0.250000    0.426650     0.86902    1.000000    
    150 Si    c    0.875000    0.250000    0.000000     4.00000    1.000000    
    151 O     c    0.750000    0.426650    0.426650     0.86902    1.000000    
    152 Si    c    0.750000    0.375000    0.000000     4.00000    1.000000    
    153 O     c    0.573350    0.250000    0.073350     0.86902    1.000000    
    154 O     c    0.750000    0.073350    0.073350     0.86902    1.000000    
    155 O     c    0.926650    0.250000    0.073350     0.86902    1.000000    
    156 O     c    0.750000    0.426650    0.073350     0.86902    1.000000    
    157 O     c    0.926650    0.073350    0.250000     0.86902    1.000000    
    158 Si    c    0.500000    0.125000    0.250000     4.00000    1.000000    
    159 O     c    0.926650    0.426650    0.250000     0.86902    1.000000    
    160 Si    c    0.875000    0.000000    0.250000     4.00000    1.000000    
    161 O     c    0.573350    0.426650    0.250000     0.86902    1.000000    
    162 Si    c    0.500000    0.375000    0.250000     4.00000    1.000000    
    163 O     c    0.573350    0.073350    0.250000     0.86902    1.000000    
    164 Si    c    0.625000    0.000000    0.250000     4.00000    1.000000    
    165 Si    c    0.750000    0.000000    0.125000     4.00000    1.000000    
    166 Si    c    0.750000    0.000000    0.375000     4.00000    1.000000    
    167 Si    c    0.500000    0.250000    0.375000     4.00000    1.000000    
    168 Si    c    0.500000    0.250000    0.125000     4.00000    1.000000    
    169 O     c    0.823350    0.000000    0.176650     0.86902    1.000000    
    170 O     c    0.500000    0.323350    0.176650     0.86902    1.000000    
    171 O     c    0.676650    0.000000    0.176650     0.86902    1.000000    
    172 O     c    0.500000    0.176650    0.176650     0.86902    1.000000    
    173 O     c    0.823350    0.000000    0.323350     0.86902    1.000000    
    174 O     c    0.500000    0.323350    0.323350     0.86902    1.000000    
    175 O     c    0.676650    0.000000    0.323350     0.86902    1.000000    
    176 O     c    0.500000    0.176650    0.323350     0.86902    1.000000    
    177 O     c    0.676650    0.323350    0.000000     0.86902    1.000000    
    178 O     c    0.676650    0.176650    0.000000     0.86902    1.000000    
    179 O     c    0.823350    0.176650    0.000000     0.86902    1.000000    
    180 O     c    0.823350    0.323350    0.000000     0.86902    1.000000    
    181 O     c    0.573350    0.250000    0.926650     0.86902    1.000000    
    182 Si    c    0.625000    0.250000    0.500000     4.00000    1.000000    
    183 O     c    0.750000    0.073350    0.926650     0.86902    1.000000    
    184 Si    c    0.750000    0.125000    0.500000     4.00000    1.000000    
    185 O     c    0.926650    0.250000    0.926650     0.86902    1.000000    
    186 Si    c    0.875000    0.250000    0.500000     4.00000    1.000000    
    187 O     c    0.750000    0.426650    0.926650     0.86902    1.000000    
    188 Si    c    0.750000    0.375000    0.500000     4.00000    1.000000    
    189 O     c    0.573350    0.250000    0.573350     0.86902    1.000000    
    190 O     c    0.750000    0.073350    0.573350     0.86902    1.000000    
    191 O     c    0.926650    0.250000    0.573350     0.86902    1.000000    
    192 O     c    0.750000    0.426650    0.573350     0.86902    1.000000    
    193 O     c    0.926650    0.073350    0.750000     0.86902    1.000000    
    194 Si    c    0.500000    0.125000    0.750000     4.00000    1.000000    
    195 O     c    0.926650    0.426650    0.750000     0.86902    1.000000    
    196 Si    c    0.875000    0.000000    0.750000     4.00000    1.000000    
    197 O     c    0.573350    0.426650    0.750000     0.86902    1.000000    
    198 Si    c    0.500000    0.375000    0.750000     4.00000    1.000000    
    199 O     c    0.573350    0.073350    0.750000     0.86902    1.000000    
    200 Si    c    0.625000    0.000000    0.750000     4.00000    1.000000    
    201 Si    c    0.750000    0.000000    0.625000     4.00000    1.000000    
    202 Si    c    0.750000    0.000000    0.875000     4.00000    1.000000    
    203 Si    c    0.500000    0.250000    0.875000     4.00000    1.000000    
    204 Si    c    0.500000    0.250000    0.625000     4.00000    1.000000    
    205 O     c    0.823350    0.000000    0.676650     0.86902    1.000000    
    206 O     c    0.500000    0.323350    0.676650     0.86902    1.000000    
    207 O     c    0.676650    0.000000    0.676650     0.86902    1.000000    
    208 O     c    0.500000    0.176650    0.676650     0.86902    1.000000    
    209 O     c    0.823350    0.000000    0.823350     0.86902    1.000000    
    210 O     c    0.500000    0.323350    0.823350     0.86902    1.000000    
    211 O     c    0.676650    0.000000    0.823350     0.86902    1.000000    
    212 O     c    0.500000    0.176650    0.823350     0.86902    1.000000    
    213 O     c    0.676650    0.323350    0.500000     0.86902    1.000000    
    214 O     c    0.676650    0.176650    0.500000     0.86902    1.000000    
    215 O     c    0.823350    0.176650    0.500000     0.86902    1.000000    
    216 O     c    0.823350    0.323350    0.500000     0.86902    1.000000    
    217 O     c    0.573350    0.750000    0.426650     0.86902    1.000000    
    218 Si    c    0.625000    0.750000    0.000000     4.00000    1.000000    
    219 O     c    0.750000    0.573350    0.426650     0.86902    1.000000    
    220 Si    c    0.750000    0.625000    0.000000     4.00000    1.000000    
    221 O     c    0.926650    0.750000    0.426650     0.86902    1.000000    
    222 Si    c    0.875000    0.750000    0.000000     4.00000    1.000000    
    223 O     c    0.750000    0.926650    0.426650     0.86902    1.000000    
    224 Si    c    0.750000    0.875000    0.000000     4.00000    1.000000    
    225 O     c    0.573350    0.750000    0.073350     0.86902    1.000000    
    226 O     c    0.750000    0.573350    0.073350     0.86902    1.000000    
    227 O     c    0.926650    0.750000    0.073350     0.86902    1.000000    
    228 O     c    0.750000    0.926650    0.073350     0.86902    1.000000    
    229 O     c    0.926650    0.573350    0.250000     0.86902    1.000000    
    230 Si    c    0.500000    0.625000    0.250000     4.00000    1.000000    
    231 O     c    0.926650    0.926650    0.250000     0.86902    1.000000    
    232 Si    c    0.875000    0.500000    0.250000     4.00000    1.000000    
    233 O     c    0.573350    0.926650    0.250000     0.86902    1.000000    
    234 Si    c    0.500000    0.875000    0.250000     4.00000    1.000000    
    235 O     c    0.573350    0.573350    0.250000     0.86902    1.000000    
    236 Si    c    0.625000    0.500000    0.250000     4.00000    1.000000    
    237 Si    c    0.750000    0.500000    0.125000     4.00000    1.000000    
    238 Si    c    0.750000    0.500000    0.375000     4.00000    1.000000    
    239 Si    c    0.500000    0.750000    0.375000     4.00000    1.000000    
    240 Si    c    0.500000    0.750000    0.125000     4.00000    1.000000    
    241 O     c    0.823350    0.500000    0.176650     0.86902    1.000000    
    242 O     c    0.500000    0.823350    0.176650     0.86902    1.000000    
    243 O     c    0.676650    0.500000    0.176650     0.86902    1.000000    
    244 O     c    0.500000    0.676650    0.176650     0.86902    1.000000    
    245 O     c    0.823350    0.500000    0.323350     0.86902    1.000000    
    246 O     c    0.500000    0.823350    0.323350     0.86902    1.000000    
    247 O     c    0.676650    0.500000    0.323350     0.86902    1.000000    
    248 O     c    0.500000    0.676650    0.323350     0.86902    1.000000    
    249 O     c    0.676650    0.823350    0.000000     0.86902    1.000000    
    250 O     c    0.676650    0.676650    0.000000     0.86902    1.000000    
    251 O     c    0.823350    0.676650    0.000000     0.86902    1.000000    
    252 O     c    0.823350    0.823350    0.000000     0.86902    1.000000    
    253 O     c    0.573350    0.750000    0.926650     0.86902    1.000000    
    254 Si    c    0.625000    0.750000    0.500000     4.00000    1.000000    
    255 O     c    0.750000    0.573350    0.926650     0.86902    1.000000    
    256 Si    c    0.750000    0.625000    0.500000     4.00000    1.000000    
    257 O     c    0.926650    0.750000    0.926650     0.86902    1.000000    
    258 Si    c    0.875000    0.750000    0.500000     4.00000    1.000000    
    259 O     c    0.750000    0.926650    0.926650     0.86902    1.000000    
    260 Si    c    0.750000    0.875000    0.500000     4.00000    1.000000    
    261 O     c    0.573350    0.750000    0.573350     0.86902    1.000000    
    262 O     c    0.750000    0.573350    0.573350     0.86902    1.000000    
    263 O     c    0.926650    0.750000    0.573350     0.86902    1.000000    
    264 O     c    0.750000    0.926650    0.573350     0.86902    1.000000    
    265 O     c    0.926650    0.573350    0.750000     0.86902    1.000000    
    266 Si    c    0.500000    0.625000    0.750000     4.00000    1.000000    
    267 O     c    0.926650    0.926650    0.750000     0.86902    1.000000    
    268 Si    c    0.875000    0.500000    0.750000     4.00000    1.000000    
    269 O     c    0.573350    0.926650    0.750000     0.86902    1.000000    
    270 Si    c    0.500000    0.875000    0.750000     4.00000    1.000000    
    271 O     c    0.573350    0.573350    0.750000     0.86902    1.000000    
    272 Si    c    0.625000    0.500000    0.750000     4.00000    1.000000    
    273 Si    c    0.750000    0.500000    0.625000     4.00000    1.000000    
    274 Si    c    0.750000    0.500000    0.875000     4.00000    1.000000    
    275 Si    c    0.500000    0.750000    0.875000     4.00000    1.000000    
    276 Si    c    0.500000    0.750000    0.625000     4.00000    1.000000    
    277 O     c    0.823350    0.500000    0.676650     0.86902    1.000000    
    278 O     c    0.500000    0.823350    0.676650     0.86902    1.000000    
    279 O     c    0.676650    0.500000    0.676650     0.86902    1.000000    
    280 O     c    0.500000    0.676650    0.676650     0.86902    1.000000    
    281 O     c    0.823350    0.500000    0.823350     0.86902    1.000000    
    282 O     c    0.500000    0.823350    0.823350     0.86902    1.000000    
    283 O     c    0.676650    0.500000    0.823350     0.86902    1.000000    
    284 O     c    0.500000    0.676650    0.823350     0.86902    1.000000    
    285 O     c    0.676650    0.823350    0.500000     0.86902    1.000000    
    286 O     c    0.676650    0.676650    0.500000     0.86902    1.000000    
    287 O     c    0.823350    0.676650    0.500000     0.86902    1.000000    
    288 O     c    0.823350    0.823350    0.500000     0.86902    1.000000    
    289 O     s    0.073350 *  0.250000 *  0.426650 *  -2.86902    1.000000    
    290 O     s    0.250000 *  0.073350 *  0.426650 *  -2.86902    1.000000    
    291 O     s    0.426650 *  0.250000 *  0.426650 *  -2.86902    1.000000    
    292 O     s    0.250000 *  0.426650 *  0.426650 *  -2.86902    1.000000    
    293 O     s    0.073350 *  0.250000 *  0.073350 *  -2.86902    1.000000    
    294 O     s    0.250000 *  0.073350 *  0.073350 *  -2.86902    1.000000    
    295 O     s    0.426650 *  0.250000 *  0.073350 *  -2.86902    1.000000    
    296 O     s    0.250000 *  0.426650 *  0.073350 *  -2.86902    1.000000    
    297 O     s    0.426650 *  0.073350 *  0.250000 *  -2.86902    1.000000    
    298 O     s    0.426650 *  0.426650 *  0.250000 *  -2.86902    1.000000    
    299 O     s    0.073350 *  0.426650 *  0.250000 *  -2.86902    1.000000    
    300 O     s    0.073350 *  0.073350 *  0.250000 *  -2.86902    1.000000    
    301 O     s    0.323350 *  0.000000 *  0.176650 *  -2.86902    1.000000    
    302 O     s    0.000000 *  0.323350 *  0.176650 *  -2.86902    1.000000    
    303 O     s    0.176650 *  0.000000 *  0.176650 *  -2.86902    1.000000    
    304 O     s    0.000000 *  0.176650 *  0.176650 *  -2.86902    1.000000    
    305 O     s    0.323350 *  0.000000 *  0.323350 *  -2.86902    1.000000    
    306 O     s    0.000000 *  0.323350 *  0.323350 *  -2.86902    1.000000    
    307 O     s    0.176650 *  0.000000 *  0.323350 *  -2.86902    1.000000    
    308 O     s    0.000000 *  0.176650 *  0.323350 *  -2.86902    1.000000    
    309 O     s    0.176650 *  0.323350 *  0.000000 *  -2.86902    1.000000    
    310 O     s    0.176650 *  0.176650 *  0.000000 *  -2.86902    1.000000    
    311 O     s    0.323350 *  0.176650 *  0.000000 *  -2.86902    1.000000    
    312 O     s    0.323350 *  0.323350 *  0.000000 *  -2.86902    1.000000    
    313 O     s    0.073350 *  0.250000 *  0.926650 *  -2.86902    1.000000    
    314 O     s    0.250000 *  0.073350 *  0.926650 *  -2.86902    1.000000    
    315 O     s    0.426650 *  0.250000 *  0.926650 *  -2.86902    1.000000    
    316 O     s    0.250000 *  0.426650 *  0.926650 *  -2.86902    1.000000    
    317 O     s    0.073350 *  0.250000 *  0.573350 *  -2.86902    1.000000    
    318 O     s    0.250000 *  0.073350 *  0.573350 *  -2.86902    1.000000    
    319 O     s    0.426650 *  0.250000 *  0.573350 *  -2.86902    1.000000    
    320 O     s    0.250000 *  0.426650 *  0.573350 *  -2.86902    1.000000    
    321 O     s    0.426650 *  0.073350 *  0.750000 *  -2.86902    1.000000    
    322 O     s    0.426650 *  0.426650 *  0.750000 *  -2.86902    1.000000    
    323 O     s    0.073350 *  0.426650 *  0.750000 *  -2.86902    1.000000    
    324 O     s    0.073350 *  0.073350 *  0.750000 *  -2.86902    1.000000    
    325 O     s    0.323350 *  0.000000 *  0.676650 *  -2.86902    1.000000    
    326 O     s    0.000000 *  0.323350 *  0.676650 *  -2.86902    1.000000    
    327 O     s    0.176650 *  0.000000 *  0.676650 *  -2.86902    1.000000    
    328 O     s    0.000000 *  0.176650 *  0.676650 *  -2.86902    1.000000    
    329 O     s    0.323350 *  0.000000 *  0.823350 *  -2.86902    1.000000    
    330 O     s    0.000000 *  0.323350 *  0.823350 *  -2.86902    1.000000    
    331 O     s    0.176650 *  0.000000 *  0.823350 *  -2.86902    1.000000    
    332 O     s    0.000000 *  0.176650 *  0.823350 *  -2.86902    1.000000    
    333 O     s    0.176650 *  0.323350 *  0.500000 *  -2.86902    1.000000    
    334 O     s    0.176650 *  0.176650 *  0.500000 *  -2.86902    1.000000    
    335 O     s    0.323350 *  0.176650 *  0.500000 *  -2.86902    1.000000    
    336 O     s    0.323350 *  0.323350 *  0.500000 *  -2.86902    1.000000    
    337 O     s    0.073350 *  0.750000 *  0.426650 *  -2.86902    1.000000    
    338 O     s    0.250000 *  0.573350 *  0.426650 *  -2.86902    1.000000    
    339 O     s    0.426650 *  0.750000 *  0.426650 *  -2.86902    1.000000    
    340 O     s    0.250000 *  0.926650 *  0.426650 *  -2.86902    1.000000    
    341 O     s    0.073350 *  0.750000 *  0.073350 *  -2.86902    1.000000    
    342 O     s    0.250000 *  0.573350 *  0.073350 *  -2.86902    1.000000    
    343 O     s    0.426650 *  0.750000 *  0.073350 *  -2.86902    1.000000    
    344 O     s    0.250000 *  0.926650 *  0.073350 *  -2.86902    1.000000    
    345 O     s    0.426650 *  0.573350 *  0.250000 *  -2.86902    1.000000    
    346 O     s    0.426650 *  0.926650 *  0.250000 *  -2.86902    1.000000    
    347 O     s    0.073350 *  0.926650 *  0.250000 *  -2.86902    1.000000    
    348 O     s    0.073350 *  0.573350 *  0.250000 *  -2.86902    1.000000    
    349 O     s    0.323350 *  0.500000 *  0.176650 *  -2.86902    1.000000    
    350 O     s    0.000000 *  0.823350 *  0.176650 *  -2.86902    1.000000    
    351 O     s    0.176650 *  0.500000 *  0.176650 *  -2.86902    1.000000    
    352 O     s    0.000000 *  0.676650 *  0.176650 *  -2.86902    1.000000    
    353 O     s    0.323350 *  0.500000 *  0.323350 *  -2.86902    1.000000    
    354 O     s    0.000000 *  0.823350 *  0.323350 *  -2.86902    1.000000    
    355 O     s    0.176650 *  0.500000 *  0.323350 *  -2.86902    1.000000    
    356 O     s    0.000000 *  0.676650 *  0.323350 *  -2.86902    1.000000    
    357 O     s    0.176650 *  0.823350 *  0.000000 *  -2.86902    1.000000    
    358 O     s    0.176650 *  0.676650 *  0.000000 *  -2.86902    1.000000    
    359 O     s    0.323350 *  0.676650 *  0.000000 *  -2.86902    1.000000    
    360 O     s    0.323350 *  0.823350 *  0.000000 *  -2.86902    1.000000    
    361 O     s    0.073350 *  0.750000 *  0.926650 *  -2.86902    1.000000    
    362 O     s    0.250000 *  0.573350 *  0.926650 *  -2.86902    1.000000    
    363 O     s    0.426650 *  0.750000 *  0.926650 *  -2.86902    1.000000    
    364 O     s    0.250000 *  0.926650 *  0.926650 *  -2.86902    1.000000    
    365 O     s    0.073350 *  0.750000 *  0.573350 *  -2.86902    1.000000    
    366 O     s    0.250000 *  0.573350 *  0.573350 *  -2.86902    1.000000    
    367 O     s    0.426650 *  0.750000 *  0.573350 *  -2.86902    1.000000    
    368 O     s    0.250000 *  0.926650 *  0.573350 *  -2.86902    1.000000    
    369 O     s    0.426650 *  0.573350 *  0.750000 *  -2.86902    1.000000    
    370 O     s    0.426650 *  0.926650 *  0.750000 *  -2.86902    1.000000    
    371 O     s    0.073350 *  0.926650 *  0.750000 *  -2.86902    1.000000    
    372 O     s    0.073350 *  0.573350 *  0.750000 *  -2.86902    1.000000    
    373 O     s    0.323350 *  0.500000 *  0.676650 *  -2.86902    1.000000    
    374 O     s    0.000000 *  0.823350 *  0.676650 *  -2.86902    1.000000    
    375 O     s    0.176650 *  0.500000 *  0.676650 *  -2.86902    1.000000    
    376 O     s    0.000000 *  0.676650 *  0.676650 *  -2.86902    1.000000    
    377 O     s    0.323350 *  0.500000 *  0.823350 *  -2.86902    1.000000    
    378 O     s    0.000000 *  0.823350 *  0.823350 *  -2.86902    1.000000    
    379 O     s    0.176650 *  0.500000 *  0.823350 *  -2.86902    1.000000    
    380 O     s    0.000000 *  0.676650 *  0.823350 *  -2.86902    1.000000    
    381 O     s    0.176650 *  0.823350 *  0.500000 *  -2.86902    1.000000    
    382 O     s    0.176650 *  0.676650 *  0.500000 *  -2.86902    1.000000    
    383 O     s    0.323350 *  0.676650 *  0.500000 *  -2.86902    1.000000    
    384 O     s    0.323350 *  0.823350 *  0.500000 *  -2.86902    1.000000    
    385 O     s    0.573350 *  0.250000 *  0.426650 *  -2.86902    1.000000    
    386 O     s    0.750000 *  0.073350 *  0.426650 *  -2.86902    1.000000    
    387 O     s    0.926650 *  0.250000 *  0.426650 *  -2.86902    1.000000    
    388 O     s    0.750000 *  0.426650 *  0.426650 *  -2.86902    1.000000    
    389 O     s    0.573350 *  0.250000 *  0.073350 *  -2.86902    1.000000    
    390 O     s    0.750000 *  0.073350 *  0.073350 *  -2.86902    1.000000    
    391 O     s    0.926650 *  0.250000 *  0.073350 *  -2.86902    1.000000    
    392 O     s    0.750000 *  0.426650 *  0.073350 *  -2.86902    1.000000    
    393 O     s    0.926650 *  0.073350 *  0.250000 *  -2.86902    1.000000    
    394 O     s    0.926650 *  0.426650 *  0.250000 *  -2.86902    1.000000    
    395 O     s    0.573350 *  0.426650 *  0.250000 *  -2.86902    1.000000    
    396 O     s    0.573350 *  0.073350 *  0.250000 *  -2.86902    1.000000    
    397 O     s    0.823350 *  0.000000 *  0.176650 *  -2.86902    1.000000    
    398 O     s    0.500000 *  0.323350 *  0.176650 *  -2.86902    1.000000    
    399 O     s    0.676650 *  0.000000 *  0.176650 *  -2.86902    1.000000    
    400 O     s    0.500000 *  0.176650 *  0.176650 *  -2.86902    1.000000    
    401 O     s    0.823350 *  0.000000 *  0.323350 *  -2.86902    1.000000    
    402 O     s    0.500000 *  0.323350 *  0.323350 *  -2.86902    1.000000    
    403 O     s    0.676650 *  0.000000 *  0.323350 *  -2.86902    1.000000    
    404 O     s    0.500000 *  0.176650 *  0.323350 *  -2.86902    1.000000    
    405 O     s    0.676650 *  0.323350 *  0.000000 *  -2.86902    1.000000    
    406 O     s    0.676650 *  0.176650 *  0.000000 *  -2.86902    1.000000    
    407 O     s    0.823350 *  0.176650 *  0.000000 *  -2.86902    1.000000    
    408 O     s    0.823350 *  0.323350 *  0.000000 *  -2.86902    1.000000    
    409 O     s    0.573350 *  0.250000 *  0.926650 *  -2.86902    1.000000    
    410 O     s    0.750000 *  0.073350 *  0.926650 *  -2.86902    1.000000    
    411 O     s    0.926650 *  0.250000 *  0.926650 *  -2.86902    1.000000    
    412 O     s    0.750000 *  0.426650 *  0.926650 *  -2.86902    1.000000    
    413 O     s    0.573350 *  0.250000 *  0.573350 *  -2.86902    1.000000    
    414 O     s    0.750000 *  0.073350 *  0.573350 *  -2.86902    1.000000    
    415 O     s    0.926650 *  0.250000 *  0.573350 *  -2.86902    1.000000    
    416 O     s    0.750000 *  0.426650 *  0.573350 *  -2.86902    1.000000    
    417 O     s    0.926650 *  0.073350 *  0.750000 *  -2.86902    1.000000    
    418 O     s    0.926650 *  0.426650 *  0.750000 *  -2.86902    1.000000    
    419 O     s    0.573350 *  0.426650 *  0.750000 *  -2.86902    1.000000    
    420 O     s    0.573350 *  0.073350 *  0.750000 *  -2.86902    1.000000    
    421 O     s    0.823350 *  0.000000 *  0.676650 *  -2.86902    1.000000    
    422 O     s    0.500000 *  0.323350 *  0.676650 *  -2.86902    1.000000    
    423 O     s    0.676650 *  0.000000 *  0.676650 *  -2.86902    1.000000    
    424 O     s    0.500000 *  0.176650 *  0.676650 *  -2.86902    1.000000    
    425 O     s    0.823350 *  0.000000 *  0.823350 *  -2.86902    1.000000    
    426 O     s    0.500000 *  0.323350 *  0.823350 *  -2.86902    1.000000    
    427 O     s    0.676650 *  0.000000 *  0.823350 *  -2.86902    1.000000    
    428 O     s    0.500000 *  0.176650 *  0.823350 *  -2.86902    1.000000    
    429 O     s    0.676650 *  0.323350 *  0.500000 *  -2.86902    1.000000    
    430 O     s    0.676650 *  0.176650 *  0.500000 *  -2.86902    1.000000    
    431 O     s    0.823350 *  0.176650 *  0.500000 *  -2.86902    1.000000    
    432 O     s    0.823350 *  0.323350 *  0.500000 *  -2.86902    1.000000    
    433 O     s    0.573350 *  0.750000 *  0.426650 *  -2.86902    1.000000    
    434 O     s    0.750000 *  0.573350 *  0.426650 *  -2.86902    1.000000    
    435 O     s    0.926650 *  0.750000 *  0.426650 *  -2.86902    1.000000    
    436 O     s    0.750000 *  0.926650 *  0.426650 *  -2.86902    1.000000    
    437 O     s    0.573350 *  0.750000 *  0.073350 *  -2.86902    1.000000    
    438 O     s    0.750000 *  0.573350 *  0.073350 *  -2.86902    1.000000    
    439 O     s    0.926650 *  0.750000 *  0.073350 *  -2.86902    1.000000    
    440 O     s    0.750000 *  0.926650 *  0.073350 *  -2.86902    1.000000    
    441 O     s    0.926650 *  0.573350 *  0.250000 *  -2.86902    1.000000    
    442 O     s    0.926650 *  0.926650 *  0.250000 *  -2.86902    1.000000    
    443 O     s    0.573350 *  0.926650 *  0.250000 *  -2.86902    1.000000    
    444 O     s    0.573350 *  0.573350 *  0.250000 *  -2.86902    1.000000    
    445 O     s    0.823350 *  0.500000 *  0.176650 *  -2.86902    1.000000    
    446 O     s    0.500000 *  0.823350 *  0.176650 *  -2.86902    1.000000    
    447 O     s    0.676650 *  0.500000 *  0.176650 *  -2.86902    1.000000    
    448 O     s    0.500000 *  0.676650 *  0.176650 *  -2.86902    1.000000    
    449 O     s    0.823350 *  0.500000 *  0.323350 *  -2.86902    1.000000    
    450 O     s    0.500000 *  0.823350 *  0.323350 *  -2.86902    1.000000    
    451 O     s    0.676650 *  0.500000 *  0.323350 *  -2.86902    1.000000    
    452 O     s    0.500000 *  0.676650 *  0.323350 *  -2.86902    1.000000    
    453 O     s    0.676650 *  0.823350 *  0.000000 *  -2.86902    1.000000    
    454 O     s    0.676650 *  0.676650 *  0.000000 *  -2.86902    1.000000    
    455 O     s    0.823350 *  0.676650 *  0.000000 *  -2.86902    1.000000    
    456 O     s    0.823350 *  0.823350 *  0.000000 *  -2.86902    1.000000    
    457 O     s    0.573350 *  0.750000 *  0.926650 *  -2.86902    1.000000    
    458 O     s    0.750000 *  0.573350 *  0.926650 *  -2.86902    1.000000    
    459 O     s    0.926650 *  0.750000 *  0.926650 *  -2.86902    1.000000    
    460 O     s    0.750000 *  0.926650 *  0.926650 *  -2.86902    1.000000    
    461 O     s    0.573350 *  0.750000 *  0.573350 *  -2.86902    1.000000    
    462 O     s    0.750000 *  0.573350 *  0.573350 *  -2.86902    1.000000    
    463 O     s    0.926650 *  0.750000 *  0.573350 *  -2.86902    1.000000    
    464 O     s    0.750000 *  0.926650 *  0.573350 *  -2.86902    1.000000    
    465 O     s    0.926650 *  0.573350 *  0.750000 *  -2.86902    1.000000    
    466 O     s    0.926650 *  0.926650 *  0.750000 *  -2.86902    1.000000    
    467 O     s    0.573350 *  0.926650 *  0.750000 *  -2.86902    1.000000    
    468 O     s    0.573350 *  0.573350 *  0.750000 *  -2.86902    1.000000    
    469 O     s    0.823350 *  0.500000 *  0.676650 *  -2.86902    1.000000    
    470 O     s    0.500000 *  0.823350 *  0.676650 *  -2.86902    1.000000    
    471 O     s    0.676650 *  0.500000 *  0.676650 *  -2.86902    1.000000    
    472 O     s    0.500000 *  0.676650 *  0.676650 *  -2.86902    1.000000    
    473 O     s    0.823350 *  0.500000 *  0.823350 *  -2.86902    1.000000    
    474 O     s    0.500000 *  0.823350 *  0.823350 *  -2.86902    1.000000    
    475 O     s    0.676650 *  0.500000 *  0.823350 *  -2.86902    1.000000    
    476 O     s    0.500000 *  0.676650 *  0.823350 *  -2.86902    1.000000    
    477 O     s    0.676650 *  0.823350 *  0.500000 *  -2.86902    1.000000    
    478 O     s    0.676650 *  0.676650 *  0.500000 *  -2.86902    1.000000    
    479 O     s    0.823350 *  0.676650 *  0.500000 *  -2.86902    1.000000    
    480 O     s    0.823350 *  0.823350 *  0.500000 *  -2.86902    1.000000    
--------------------------------------------------------------------------------



********************************************************************************
*  General input information                                                   *
********************************************************************************

  Species output for all configurations : 

--------------------------------------------------------------------------------
  Species    Type    Atomic    Atomic    Charge       Radii (Angs)     Library
                     Number     Mass       (e)     Cova   Ionic  VDW   Symbol
--------------------------------------------------------------------------------
    O        Core        8      16.00   0.869020   0.730  0.000  1.360 O        
    O        Shell       8       0.00  -2.869020   0.730  0.000  0.000 O        
    Si       Core       14      28.09   4.000000   1.200  0.000  2.100 Si       
--------------------------------------------------------------------------------


  Lattice summation method               =    Ewald          (3-D)
                                         =    Parry          (2-D)
                                         =    Saunders et al (1-D)
  Accuracy factor for lattice sums       =   12.000


  Analytic derivatives to be used

  Time limit = Infinity

  Maximum range for interatomic potentials =    100000.000000 Angstroms

  General interatomic potentials :

--------------------------------------------------------------------------------
Atom  Types   Potential      Parameter       Value         Units   Cutoffs(Ang)
  1     2                                                            Min /  Max 
--------------------------------------------------------------------------------
Si   c O    s Buckingham    Buckingham A     1283.9070    eV        0.000 10.000
                            Buckingham rho  0.32052000    Ang       
                            Buckingham C     10.661580    eV*Ang^6  
--------------------------------------------------------------------------------
O    s O    s Buckingham    Buckingham A     22764.000    eV        0.000 12.000
                            Buckingham rho  0.14900000    Ang       
                            Buckingham C     27.879000    eV*Ang^6  
--------------------------------------------------------------------------------
O    c O    s Spring (c-s)  Spring k 2       74.920000    eV*Ang^-2 0.000  1.100
                            Spring k 4       0.0000000    eV*Ang^-4 
--------------------------------------------------------------------------------

  General Three-body potentials :

--------------------------------------------------------------------------------
  Atoms       Potential      Parameter       Value         Units   Cutoffs(Ang)
  1 / 2 / 3                                                          Min /  Max 
--------------------------------------------------------------------------------
Si    core    Harmonic      Three-body cnst  2.0972400    eV*rad^-2 0.000  1.900
O     shel                  Three-body angl  109.47000    degrees   0.000  1.900
O     shel                  Three-body k4    0.0000000    eV*rad^-4 0.000  3.500
                            Three-body k3    0.0000000    eV*rad^-3 
--------------------------------------------------------------------------------
Si    core    Harmonic      Three-body cnst  2.0972400    eV*rad^-2 0.000  1.900
O     shel                  Three-body angl  109.47000    degrees   0.000  1.900
õ(    shel                  Three-body k4    0.0000000    eV*rad^-4 0.000  3.500
                            Three-body k3    0.0000000    eV*rad^-3 
--------------------------------------------------------------------------------
Si    core    Harmonic      Three-body cnst  2.0972400    eV*rad^-2 0.000  1.900
õ(    shel                  Three-body angl  109.47000    degrees   0.000  1.900
õ(    shel                  Three-body k4    0.0000000    eV*rad^-4 0.000  3.500
                            Three-body k3    0.0000000    eV*rad^-3 
--------------------------------------------------------------------------------

********************************************************************************
*  Output for configuration   1 : ReferenceDataBase/SOD                        *
********************************************************************************


  Components of energy : 

--------------------------------------------------------------------------------
  Interatomic potentials     =        2972.27881409 eV    
  Three-body potentials      =           0.00467803 eV    
  Monopole - monopole (real) =      -12172.93190320 eV    
  Monopole - monopole (recip)=       -3095.22912902 eV    
  Monopole - monopole (total)=      -15268.16103223 eV    
--------------------------------------------------------------------------------
  Total lattice energy       =      -12295.87754010 eV    
--------------------------------------------------------------------------------
  Total lattice energy       =        -1186364.2229 kJ/(mole unit cells)
--------------------------------------------------------------------------------


  Number of variables =      576

  Maximum number of calculations  =           500
  Maximum Hessian update interval =            10
  Maximum step size               =   0.100000000
  Maximum parameter tolerance     =   0.000010000
  Maximum function  tolerance     =   0.000010000
  Maximum gradient  tolerance     =   0.001000000
  Maximum gradient  component     =   0.010000000

  Newton-Raphson optimiser to be used

  BFGS hessian update to be used

  Lower half triangular hessian to be used

  Minimiser to switch to RFO
  When gradient norm is less than     0.080000

  Switch max step size to       0.30000000 when gnorm is less than     0.005000

  Shell only optimisation

  Dumpfile to be written after every cycle

  Start of bulk optimisation :

  Cycle:      0 Energy:    -12295.877540  Gnorm:      3.227140  CPU:    2.531
  ** Hessian calculated **
  Cycle:      1 Energy:    -12336.444074  Gnorm:      0.598119  CPU:    4.155
  ** Hessian calculated **
  Cycle:      2 Energy:    -12337.502067  Gnorm:      0.298443  CPU:    7.314
  Cycle:      3 Energy:    -12337.764814  Gnorm:      0.148761  CPU:    8.402
  Cycle:      4 Energy:    -12337.829924  Gnorm:      0.074266  CPU:    9.468
  ** Hessian has required structure
  Cycle:      5 Energy:    -12337.846131  Gnorm:      0.037104  CPU:   10.947
  ** Hessian has required structure
  Cycle:      6 Energy:    -12337.850173  Gnorm:      0.018544  CPU:   12.441
  ** Hessian has required structure
  Cycle:      7 Energy:    -12337.851183  Gnorm:      0.009270  CPU:   13.907
  ** Hessian has required structure
  Cycle:      8 Energy:    -12337.851355  Gnorm:      0.006489  CPU:   15.016
  ** Hessian has required structure
  Cycle:      9 Energy:    -12337.851439  Gnorm:      0.004542  CPU:   16.132
  ** Hessian has required structure
  Cycle:     10 Energy:    -12337.851500  Gnorm:      0.002206  CPU:   17.250
  ** Hessian has required structure
  Cycle:     11 Energy:    -12337.851519  Gnorm:      0.000376  CPU:   18.360
  ** Hessian has required structure


  **** Optimisation achieved ****


  Final energy =  -12337.85151924 eV      
  Final Gnorm  =       0.00007520

  Components of energy : 

--------------------------------------------------------------------------------
  Interatomic potentials     =        3078.62496662 eV    
  Three-body potentials      =           1.39399365 eV    
  Monopole - monopole (real) =      -11036.44516701 eV    
  Monopole - monopole (recip)=       -4381.42531250 eV    
  Monopole - monopole (total)=      -15417.87047951 eV    
--------------------------------------------------------------------------------
  Total lattice energy       =      -12337.85151924 eV    
--------------------------------------------------------------------------------
  Total lattice energy       =        -1190414.0703 kJ/(mole unit cells)
--------------------------------------------------------------------------------

  Final fractional coordinates of atoms :

--------------------------------------------------------------------------------
   No.  Atomic        x           y          z          Radius
        Label       (Frac)      (Frac)     (Frac)       (Angs) 
--------------------------------------------------------------------------------
     1  O     c     0.073350    0.250000    0.426650    0.000000
     2  Si    c     0.125000    0.250000    0.000000    0.000000
     3  O     c     0.250000    0.073350    0.426650    0.000000
     4  Si    c     0.250000    0.125000    0.000000    0.000000
     5  O     c     0.426650    0.250000    0.426650    0.000000
     6  Si    c     0.375000    0.250000    0.000000    0.000000
     7  O     c     0.250000    0.426650    0.426650    0.000000
     8  Si    c     0.250000    0.375000    0.000000    0.000000
     9  O     c     0.073350    0.250000    0.073350    0.000000
    10  O     c     0.250000    0.073350    0.073350    0.000000
    11  O     c     0.426650    0.250000    0.073350    0.000000
    12  O     c     0.250000    0.426650    0.073350    0.000000
    13  O     c     0.426650    0.073350    0.250000    0.000000
    14  Si    c     0.000000    0.125000    0.250000    0.000000
    15  O     c     0.426650    0.426650    0.250000    0.000000
    16  Si    c     0.375000    0.000000    0.250000    0.000000
    17  O     c     0.073350    0.426650    0.250000    0.000000
    18  Si    c     0.000000    0.375000    0.250000    0.000000
    19  O     c     0.073350    0.073350    0.250000    0.000000
    20  Si    c     0.125000    0.000000    0.250000    0.000000
    21  Si    c     0.250000    0.000000    0.125000    0.000000
    22  Si    c     0.250000    0.000000    0.375000    0.000000
    23  Si    c     0.000000    0.250000    0.375000    0.000000
    24  Si    c     0.000000    0.250000    0.125000    0.000000
    25  O     c     0.323350    0.000000    0.176650    0.000000
    26  O     c     0.000000    0.323350    0.176650    0.000000
    27  O     c     0.176650    0.000000    0.176650    0.000000
    28  O     c     0.000000    0.176650    0.176650    0.000000
    29  O     c     0.323350    0.000000    0.323350    0.000000
    30  O     c     0.000000    0.323350    0.323350    0.000000
    31  O     c     0.176650    0.000000    0.323350    0.000000
    32  O     c     0.000000    0.176650    0.323350    0.000000
    33  O     c     0.176650    0.323350    0.000000    0.000000
    34  O     c     0.176650    0.176650    0.000000    0.000000
    35  O     c     0.323350    0.176650    0.000000    0.000000
    36  O     c     0.323350    0.323350    0.000000    0.000000
    37  O     c     0.073350    0.250000    0.926650    0.000000
    38  Si    c     0.125000    0.250000    0.500000    0.000000
    39  O     c     0.250000    0.073350    0.926650    0.000000
    40  Si    c     0.250000    0.125000    0.500000    0.000000
    41  O     c     0.426650    0.250000    0.926650    0.000000
    42  Si    c     0.375000    0.250000    0.500000    0.000000
    43  O     c     0.250000    0.426650    0.926650    0.000000
    44  Si    c     0.250000    0.375000    0.500000    0.000000
    45  O     c     0.073350    0.250000    0.573350    0.000000
    46  O     c     0.250000    0.073350    0.573350    0.000000
    47  O     c     0.426650    0.250000    0.573350    0.000000
    48  O     c     0.250000    0.426650    0.573350    0.000000
    49  O     c     0.426650    0.073350    0.750000    0.000000
    50  Si    c     0.000000    0.125000    0.750000    0.000000
    51  O     c     0.426650    0.426650    0.750000    0.000000
    52  Si    c     0.375000    0.000000    0.750000    0.000000
    53  O     c     0.073350    0.426650    0.750000    0.000000
    54  Si    c     0.000000    0.375000    0.750000    0.000000
    55  O     c     0.073350    0.073350    0.750000    0.000000
    56  Si    c     0.125000    0.000000    0.750000    0.000000
    57  Si    c     0.250000    0.000000    0.625000    0.000000
    58  Si    c     0.250000    0.000000    0.875000    0.000000
    59  Si    c     0.000000    0.250000    0.875000    0.000000
    60  Si    c     0.000000    0.250000    0.625000    0.000000
    61  O     c     0.323350    0.000000    0.676650    0.000000
    62  O     c     0.000000    0.323350    0.676650    0.000000
    63  O     c     0.176650    0.000000    0.676650    0.000000
    64  O     c     0.000000    0.176650    0.676650    0.000000
    65  O     c     0.323350    0.000000    0.823350    0.000000
    66  O     c     0.000000    0.323350    0.823350    0.000000
    67  O     c     0.176650    0.000000    0.823350    0.000000
    68  O     c     0.000000    0.176650    0.823350    0.000000
    69  O     c     0.176650    0.323350    0.500000    0.000000
    70  O     c     0.176650    0.176650    0.500000    0.000000
    71  O     c     0.323350    0.176650    0.500000    0.000000
    72  O     c     0.323350    0.323350    0.500000    0.000000
    73  O     c     0.073350    0.750000    0.426650    0.000000
    74  Si    c     0.125000    0.750000    0.000000    0.000000
    75  O     c     0.250000    0.573350    0.426650    0.000000
    76  Si    c     0.250000    0.625000    0.000000    0.000000
    77  O     c     0.426650    0.750000    0.426650    0.000000
    78  Si    c     0.375000    0.750000    0.000000    0.000000
    79  O     c     0.250000    0.926650    0.426650    0.000000
    80  Si    c     0.250000    0.875000    0.000000    0.000000
    81  O     c     0.073350    0.750000    0.073350    0.000000
    82  O     c     0.250000    0.573350    0.073350    0.000000
    83  O     c     0.426650    0.750000    0.073350    0.000000
    84  O     c     0.250000    0.926650    0.073350    0.000000
    85  O     c     0.426650    0.573350    0.250000    0.000000
    86  Si    c     0.000000    0.625000    0.250000    0.000000
    87  O     c     0.426650    0.926650    0.250000    0.000000
    88  Si    c     0.375000    0.500000    0.250000    0.000000
    89  O     c     0.073350    0.926650    0.250000    0.000000
    90  Si    c     0.000000    0.875000    0.250000    0.000000
    91  O     c     0.073350    0.573350    0.250000    0.000000
    92  Si    c     0.125000    0.500000    0.250000    0.000000
    93  Si    c     0.250000    0.500000    0.125000    0.000000
    94  Si    c     0.250000    0.500000    0.375000    0.000000
    95  Si    c     0.000000    0.750000    0.375000    0.000000
    96  Si    c     0.000000    0.750000    0.125000    0.000000
    97  O     c     0.323350    0.500000    0.176650    0.000000
    98  O     c     0.000000    0.823350    0.176650    0.000000
    99  O     c     0.176650    0.500000    0.176650    0.000000
   100  O     c     0.000000    0.676650    0.176650    0.000000
   101  O     c     0.323350    0.500000    0.323350    0.000000
   102  O     c     0.000000    0.823350    0.323350    0.000000
   103  O     c     0.176650    0.500000    0.323350    0.000000
   104  O     c     0.000000    0.676650    0.323350    0.000000
   105  O     c     0.176650    0.823350    0.000000    0.000000
   106  O     c     0.176650    0.676650    0.000000    0.000000
   107  O     c     0.323350    0.676650    0.000000    0.000000
   108  O     c     0.323350    0.823350    0.000000    0.000000
   109  O     c     0.073350    0.750000    0.926650    0.000000
   110  Si    c     0.125000    0.750000    0.500000    0.000000
   111  O     c     0.250000    0.573350    0.926650    0.000000
   112  Si    c     0.250000    0.625000    0.500000    0.000000
   113  O     c     0.426650    0.750000    0.926650    0.000000
   114  Si    c     0.375000    0.750000    0.500000    0.000000
   115  O     c     0.250000    0.926650    0.926650    0.000000
   116  Si    c     0.250000    0.875000    0.500000    0.000000
   117  O     c     0.073350    0.750000    0.573350    0.000000
   118  O     c     0.250000    0.573350    0.573350    0.000000
   119  O     c     0.426650    0.750000    0.573350    0.000000
   120  O     c     0.250000    0.926650    0.573350    0.000000
   121  O     c     0.426650    0.573350    0.750000    0.000000
   122  Si    c     0.000000    0.625000    0.750000    0.000000
   123  O     c     0.426650    0.926650    0.750000    0.000000
   124  Si    c     0.375000    0.500000    0.750000    0.000000
   125  O     c     0.073350    0.926650    0.750000    0.000000
   126  Si    c     0.000000    0.875000    0.750000    0.000000
   127  O     c     0.073350    0.573350    0.750000    0.000000
   128  Si    c     0.125000    0.500000    0.750000    0.000000
   129  Si    c     0.250000    0.500000    0.625000    0.000000
   130  Si    c     0.250000    0.500000    0.875000    0.000000
   131  Si    c     0.000000    0.750000    0.875000    0.000000
   132  Si    c     0.000000    0.750000    0.625000    0.000000
   133  O     c     0.323350    0.500000    0.676650    0.000000
   134  O     c     0.000000    0.823350    0.676650    0.000000
   135  O     c     0.176650    0.500000    0.676650    0.000000
   136  O     c     0.000000    0.676650    0.676650    0.000000
   137  O     c     0.323350    0.500000    0.823350    0.000000
   138  O     c     0.000000    0.823350    0.823350    0.000000
   139  O     c     0.176650    0.500000    0.823350    0.000000
   140  O     c     0.000000    0.676650    0.823350    0.000000
   141  O     c     0.176650    0.823350    0.500000    0.000000
   142  O     c     0.176650    0.676650    0.500000    0.000000
   143  O     c     0.323350    0.676650    0.500000    0.000000
   144  O     c     0.323350    0.823350    0.500000    0.000000
   145  O     c     0.573350    0.250000    0.426650    0.000000
   146  Si    c     0.625000    0.250000    0.000000    0.000000
   147  O     c     0.750000    0.073350    0.426650    0.000000
   148  Si    c     0.750000    0.125000    0.000000    0.000000
   149  O     c     0.926650    0.250000    0.426650    0.000000
   150  Si    c     0.875000    0.250000    0.000000    0.000000
   151  O     c     0.750000    0.426650    0.426650    0.000000
   152  Si    c     0.750000    0.375000    0.000000    0.000000
   153  O     c     0.573350    0.250000    0.073350    0.000000
   154  O     c     0.750000    0.073350    0.073350    0.000000
   155  O     c     0.926650    0.250000    0.073350    0.000000
   156  O     c     0.750000    0.426650    0.073350    0.000000
   157  O     c     0.926650    0.073350    0.250000    0.000000
   158  Si    c     0.500000    0.125000    0.250000    0.000000
   159  O     c     0.926650    0.426650    0.250000    0.000000
   160  Si    c     0.875000    0.000000    0.250000    0.000000
   161  O     c     0.573350    0.426650    0.250000    0.000000
   162  Si    c     0.500000    0.375000    0.250000    0.000000
   163  O     c     0.573350    0.073350    0.250000    0.000000
   164  Si    c     0.625000    0.000000    0.250000    0.000000
   165  Si    c     0.750000    0.000000    0.125000    0.000000
   166  Si    c     0.750000    0.000000    0.375000    0.000000
   167  Si    c     0.500000    0.250000    0.375000    0.000000
   168  Si    c     0.500000    0.250000    0.125000    0.000000
   169  O     c     0.823350    0.000000    0.176650    0.000000
   170  O     c     0.500000    0.323350    0.176650    0.000000
   171  O     c     0.676650    0.000000    0.176650    0.000000
   172  O     c     0.500000    0.176650    0.176650    0.000000
   173  O     c     0.823350    0.000000    0.323350    0.000000
   174  O     c     0.500000    0.323350    0.323350    0.000000
   175  O     c     0.676650    0.000000    0.323350    0.000000
   176  O     c     0.500000    0.176650    0.323350    0.000000
   177  O     c     0.676650    0.323350    0.000000    0.000000
   178  O     c     0.676650    0.176650    0.000000    0.000000
   179  O     c     0.823350    0.176650    0.000000    0.000000
   180  O     c     0.823350    0.323350    0.000000    0.000000
   181  O     c     0.573350    0.250000    0.926650    0.000000
   182  Si    c     0.625000    0.250000    0.500000    0.000000
   183  O     c     0.750000    0.073350    0.926650    0.000000
   184  Si    c     0.750000    0.125000    0.500000    0.000000
   185  O     c     0.926650    0.250000    0.926650    0.000000
   186  Si    c     0.875000    0.250000    0.500000    0.000000
   187  O     c     0.750000    0.426650    0.926650    0.000000
   188  Si    c     0.750000    0.375000    0.500000    0.000000
   189  O     c     0.573350    0.250000    0.573350    0.000000
   190  O     c     0.750000    0.073350    0.573350    0.000000
   191  O     c     0.926650    0.250000    0.573350    0.000000
   192  O     c     0.750000    0.426650    0.573350    0.000000
   193  O     c     0.926650    0.073350    0.750000    0.000000
   194  Si    c     0.500000    0.125000    0.750000    0.000000
   195  O     c     0.926650    0.426650    0.750000    0.000000
   196  Si    c     0.875000    0.000000    0.750000    0.000000
   197  O     c     0.573350    0.426650    0.750000    0.000000
   198  Si    c     0.500000    0.375000    0.750000    0.000000
   199  O     c     0.573350    0.073350    0.750000    0.000000
   200  Si    c     0.625000    0.000000    0.750000    0.000000
   201  Si    c     0.750000    0.000000    0.625000    0.000000
   202  Si    c     0.750000    0.000000    0.875000    0.000000
   203  Si    c     0.500000    0.250000    0.875000    0.000000
   204  Si    c     0.500000    0.250000    0.625000    0.000000
   205  O     c     0.823350    0.000000    0.676650    0.000000
   206  O     c     0.500000    0.323350    0.676650    0.000000
   207  O     c     0.676650    0.000000    0.676650    0.000000
   208  O     c     0.500000    0.176650    0.676650    0.000000
   209  O     c     0.823350    0.000000    0.823350    0.000000
   210  O     c     0.500000    0.323350    0.823350    0.000000
   211  O     c     0.676650    0.000000    0.823350    0.000000
   212  O     c     0.500000    0.176650    0.823350    0.000000
   213  O     c     0.676650    0.323350    0.500000    0.000000
   214  O     c     0.676650    0.176650    0.500000    0.000000
   215  O     c     0.823350    0.176650    0.500000    0.000000
   216  O     c     0.823350    0.323350    0.500000    0.000000
   217  O     c     0.573350    0.750000    0.426650    0.000000
   218  Si    c     0.625000    0.750000    0.000000    0.000000
   219  O     c     0.750000    0.573350    0.426650    0.000000
   220  Si    c     0.750000    0.625000    0.000000    0.000000
   221  O     c     0.926650    0.750000    0.426650    0.000000
   222  Si    c     0.875000    0.750000    0.000000    0.000000
   223  O     c     0.750000    0.926650    0.426650    0.000000
   224  Si    c     0.750000    0.875000    0.000000    0.000000
   225  O     c     0.573350    0.750000    0.073350    0.000000
   226  O     c     0.750000    0.573350    0.073350    0.000000
   227  O     c     0.926650    0.750000    0.073350    0.000000
   228  O     c     0.750000    0.926650    0.073350    0.000000
   229  O     c     0.926650    0.573350    0.250000    0.000000
   230  Si    c     0.500000    0.625000    0.250000    0.000000
   231  O     c     0.926650    0.926650    0.250000    0.000000
   232  Si    c     0.875000    0.500000    0.250000    0.000000
   233  O     c     0.573350    0.926650    0.250000    0.000000
   234  Si    c     0.500000    0.875000    0.250000    0.000000
   235  O     c     0.573350    0.573350    0.250000    0.000000
   236  Si    c     0.625000    0.500000    0.250000    0.000000
   237  Si    c     0.750000    0.500000    0.125000    0.000000
   238  Si    c     0.750000    0.500000    0.375000    0.000000
   239  Si    c     0.500000    0.750000    0.375000    0.000000
   240  Si    c     0.500000    0.750000    0.125000    0.000000
   241  O     c     0.823350    0.500000    0.176650    0.000000
   242  O     c     0.500000    0.823350    0.176650    0.000000
   243  O     c     0.676650    0.500000    0.176650    0.000000
   244  O     c     0.500000    0.676650    0.176650    0.000000
   245  O     c     0.823350    0.500000    0.323350    0.000000
   246  O     c     0.500000    0.823350    0.323350    0.000000
   247  O     c     0.676650    0.500000    0.323350    0.000000
   248  O     c     0.500000    0.676650    0.323350    0.000000
   249  O     c     0.676650    0.823350    0.000000    0.000000
   250  O     c     0.676650    0.676650    0.000000    0.000000
   251  O     c     0.823350    0.676650    0.000000    0.000000
   252  O     c     0.823350    0.823350    0.000000    0.000000
   253  O     c     0.573350    0.750000    0.926650    0.000000
   254  Si    c     0.625000    0.750000    0.500000    0.000000
   255  O     c     0.750000    0.573350    0.926650    0.000000
   256  Si    c     0.750000    0.625000    0.500000    0.000000
   257  O     c     0.926650    0.750000    0.926650    0.000000
   258  Si    c     0.875000    0.750000    0.500000    0.000000
   259  O     c     0.750000    0.926650    0.926650    0.000000
   260  Si    c     0.750000    0.875000    0.500000    0.000000
   261  O     c     0.573350    0.750000    0.573350    0.000000
   262  O     c     0.750000    0.573350    0.573350    0.000000
   263  O     c     0.926650    0.750000    0.573350    0.000000
   264  O     c     0.750000    0.926650    0.573350    0.000000
   265  O     c     0.926650    0.573350    0.750000    0.000000
   266  Si    c     0.500000    0.625000    0.750000    0.000000
   267  O     c     0.926650    0.926650    0.750000    0.000000
   268  Si    c     0.875000    0.500000    0.750000    0.000000
   269  O     c     0.573350    0.926650    0.750000    0.000000
   270  Si    c     0.500000    0.875000    0.750000    0.000000
   271  O     c     0.573350    0.573350    0.750000    0.000000
   272  Si    c     0.625000    0.500000    0.750000    0.000000
   273  Si    c     0.750000    0.500000    0.625000    0.000000
   274  Si    c     0.750000    0.500000    0.875000    0.000000
   275  Si    c     0.500000    0.750000    0.875000    0.000000
   276  Si    c     0.500000    0.750000    0.625000    0.000000
   277  O     c     0.823350    0.500000    0.676650    0.000000
   278  O     c     0.500000    0.823350    0.676650    0.000000
   279  O     c     0.676650    0.500000    0.676650    0.000000
   280  O     c     0.500000    0.676650    0.676650    0.000000
   281  O     c     0.823350    0.500000    0.823350    0.000000
   282  O     c     0.500000    0.823350    0.823350    0.000000
   283  O     c     0.676650    0.500000    0.823350    0.000000
   284  O     c     0.500000    0.676650    0.823350    0.000000
   285  O     c     0.676650    0.823350    0.500000    0.000000
   286  O     c     0.676650    0.676650    0.500000    0.000000
   287  O     c     0.823350    0.676650    0.500000    0.000000
   288  O     c     0.823350    0.823350    0.500000    0.000000
   289  O     s     0.071062    0.250000    0.428938    0.000000
   290  O     s     0.250000    0.071062    0.428938    0.000000
   291  O     s     0.428938    0.250000    0.428938    0.000000
   292  O     s     0.250000    0.428938    0.428938    0.000000
   293  O     s     0.071062    0.250000    0.071062    0.000000
   294  O     s     0.250000    0.071062    0.071062    0.000000
   295  O     s     0.428938    0.250000    0.071062    0.000000
   296  O     s     0.250000    0.428938    0.071062    0.000000
   297  O     s     0.428938    0.071062    0.250000    0.000000
   298  O     s     0.428938    0.428938    0.250000    0.000000
   299  O     s     0.071062    0.428938    0.250000    0.000000
   300  O     s     0.071062    0.071062    0.250000    0.000000
   301  O     s     0.321062    0.000000    0.178938    0.000000
   302  O     s     0.000000    0.321062    0.178938    0.000000
   303  O     s     0.178938    0.000000    0.178938    0.000000
   304  O     s     0.000000    0.178938    0.178938    0.000000
   305  O     s     0.321062    0.000000    0.321062    0.000000
   306  O     s     0.000000    0.321062    0.321062    0.000000
   307  O     s     0.178938    0.000000    0.321062    0.000000
   308  O     s     0.000000    0.178938    0.321062    0.000000
   309  O     s     0.178938    0.321062    0.000000    0.000000
   310  O     s     0.178938    0.178938    0.000000    0.000000
   311  O     s     0.321062    0.178938    0.000000    0.000000
   312  O     s     0.321062    0.321062    0.000000    0.000000
   313  O     s     0.071062    0.250000    0.928938    0.000000
   314  O     s     0.250000    0.071062    0.928938    0.000000
   315  O     s     0.428938    0.250000    0.928938    0.000000
   316  O     s     0.250000    0.428938    0.928938    0.000000
   317  O     s     0.071062    0.250000    0.571062    0.000000
   318  O     s     0.250000    0.071062    0.571062    0.000000
   319  O     s     0.428938    0.250000    0.571062    0.000000
   320  O     s     0.250000    0.428938    0.571062    0.000000
   321  O     s     0.428938    0.071062    0.750000    0.000000
   322  O     s     0.428938    0.428938    0.750000    0.000000
   323  O     s     0.071062    0.428938    0.750000    0.000000
   324  O     s     0.071062    0.071062    0.750000    0.000000
   325  O     s     0.321062    0.000000    0.678938    0.000000
   326  O     s     0.000000    0.321062    0.678938    0.000000
   327  O     s     0.178938    0.000000    0.678938    0.000000
   328  O     s     0.000000    0.178938    0.678938    0.000000
   329  O     s     0.321062    0.000000    0.821062    0.000000
   330  O     s     0.000000    0.321062    0.821062    0.000000
   331  O     s     0.178938    0.000000    0.821062    0.000000
   332  O     s     0.000000    0.178938    0.821062    0.000000
   333  O     s     0.178938    0.321062    0.500000    0.000000
   334  O     s     0.178938    0.178938    0.500000    0.000000
   335  O     s     0.321062    0.178938    0.500000    0.000000
   336  O     s     0.321062    0.321062    0.500000    0.000000
   337  O     s     0.071062    0.750000    0.428938    0.000000
   338  O     s     0.250000    0.571062    0.428938    0.000000
   339  O     s     0.428938    0.750000    0.428938    0.000000
   340  O     s     0.250000    0.928938    0.428938    0.000000
   341  O     s     0.071062    0.750000    0.071062    0.000000
   342  O     s     0.250000    0.571062    0.071062    0.000000
   343  O     s     0.428938    0.750000    0.071062    0.000000
   344  O     s     0.250000    0.928938    0.071062    0.000000
   345  O     s     0.428938    0.571062    0.250000    0.000000
   346  O     s     0.428938    0.928938    0.250000    0.000000
   347  O     s     0.071062    0.928938    0.250000    0.000000
   348  O     s     0.071062    0.571062    0.250000    0.000000
   349  O     s     0.321062    0.500000    0.178938    0.000000
   350  O     s     0.000000    0.821062    0.178938    0.000000
   351  O     s     0.178938    0.500000    0.178938    0.000000
   352  O     s     0.000000    0.678938    0.178938    0.000000
   353  O     s     0.321062    0.500000    0.321062    0.000000
   354  O     s     0.000000    0.821062    0.321062    0.000000
   355  O     s     0.178938    0.500000    0.321062    0.000000
   356  O     s     0.000000    0.678938    0.321062    0.000000
   357  O     s     0.178938    0.821062    0.000000    0.000000
   358  O     s     0.178938    0.678938    0.000000    0.000000
   359  O     s     0.321062    0.678938    0.000000    0.000000
   360  O     s     0.321062    0.821062    0.000000    0.000000
   361  O     s     0.071062    0.750000    0.928938    0.000000
   362  O     s     0.250000    0.571062    0.928938    0.000000
   363  O     s     0.428938    0.750000    0.928938    0.000000
   364  O     s     0.250000    0.928938    0.928938    0.000000
   365  O     s     0.071062    0.750000    0.571062    0.000000
   366  O     s     0.250000    0.571062    0.571062    0.000000
   367  O     s     0.428938    0.750000    0.571062    0.000000
   368  O     s     0.250000    0.928938    0.571062    0.000000
   369  O     s     0.428938    0.571062    0.750000    0.000000
   370  O     s     0.428938    0.928938    0.750000    0.000000
   371  O     s     0.071062    0.928938    0.750000    0.000000
   372  O     s     0.071062    0.571062    0.750000    0.000000
   373  O     s     0.321062    0.500000    0.678938    0.000000
   374  O     s     0.000000    0.821062    0.678938    0.000000
   375  O     s     0.178938    0.500000    0.678938    0.000000
   376  O     s     0.000000    0.678938    0.678938    0.000000
   377  O     s     0.321062    0.500000    0.821062    0.000000
   378  O     s     0.000000    0.821062    0.821062    0.000000
   379  O     s     0.178938    0.500000    0.821062    0.000000
   380  O     s     0.000000    0.678938    0.821062    0.000000
   381  O     s     0.178938    0.821062    0.500000    0.000000
   382  O     s     0.178938    0.678938    0.500000    0.000000
   383  O     s     0.321062    0.678938    0.500000    0.000000
   384  O     s     0.321062    0.821062    0.500000    0.000000
   385  O     s     0.571062    0.250000    0.428938    0.000000
   386  O     s     0.750000    0.071062    0.428938    0.000000
   387  O     s     0.928938    0.250000    0.428938    0.000000
   388  O     s     0.750000    0.428938    0.428938    0.000000
   389  O     s     0.571062    0.250000    0.071062    0.000000
   390  O     s     0.750000    0.071062    0.071062    0.000000
   391  O     s     0.928938    0.250000    0.071062    0.000000
   392  O     s     0.750000    0.428938    0.071062    0.000000
   393  O     s     0.928938    0.071062    0.250000    0.000000
   394  O     s     0.928938    0.428938    0.250000    0.000000
   395  O     s     0.571062    0.428938    0.250000    0.000000
   396  O     s     0.571062    0.071062    0.250000    0.000000
   397  O     s     0.821062    0.000000    0.178938    0.000000
   398  O     s     0.500000    0.321062    0.178938    0.000000
   399  O     s     0.678938    0.000000    0.178938    0.000000
   400  O     s     0.500000    0.178938    0.178938    0.000000
   401  O     s     0.821062    0.000000    0.321062    0.000000
   402  O     s     0.500000    0.321062    0.321062    0.000000
   403  O     s     0.678938    0.000000    0.321062    0.000000
   404  O     s     0.500000    0.178938    0.321062    0.000000
   405  O     s     0.678938    0.321062    0.000000    0.000000
   406  O     s     0.678938    0.178938    0.000000    0.000000
   407  O     s     0.821062    0.178938    0.000000    0.000000
   408  O     s     0.821062    0.321062    0.000000    0.000000
   409  O     s     0.571062    0.250000    0.928938    0.000000
   410  O     s     0.750000    0.071062    0.928938    0.000000
   411  O     s     0.928938    0.250000    0.928938    0.000000
   412  O     s     0.750000    0.428938    0.928938    0.000000
   413  O     s     0.571062    0.250000    0.571062    0.000000
   414  O     s     0.750000    0.071062    0.571062    0.000000
   415  O     s     0.928938    0.250000    0.571062    0.000000
   416  O     s     0.750000    0.428938    0.571062    0.000000
   417  O     s     0.928938    0.071062    0.750000    0.000000
   418  O     s     0.928938    0.428938    0.750000    0.000000
   419  O     s     0.571062    0.428938    0.750000    0.000000
   420  O     s     0.571062    0.071062    0.750000    0.000000
   421  O     s     0.821062    0.000000    0.678938    0.000000
   422  O     s     0.500000    0.321062    0.678938    0.000000
   423  O     s     0.678938    0.000000    0.678938    0.000000
   424  O     s     0.500000    0.178938    0.678938    0.000000
   425  O     s     0.821062    0.000000    0.821062    0.000000
   426  O     s     0.500000    0.321062    0.821062    0.000000
   427  O     s     0.678938    0.000000    0.821062    0.000000
   428  O     s     0.500000    0.178938    0.821062    0.000000
   429  O     s     0.678938    0.321062    0.500000    0.000000
   430  O     s     0.678938    0.178938    0.500000    0.000000
   431  O     s     0.821062    0.178938    0.500000    0.000000
   432  O     s     0.821062    0.321062    0.500000    0.000000
   433  O     s     0.571062    0.750000    0.428938    0.000000
   434  O     s     0.750000    0.571062    0.428938    0.000000
   435  O     s     0.928938    0.750000    0.428938    0.000000
   436  O     s     0.750000    0.928938    0.428938    0.000000
   437  O     s     0.571062    0.750000    0.071062    0.000000
   438  O     s     0.750000    0.571062    0.071062    0.000000
   439  O     s     0.928938    0.750000    0.071062    0.000000
   440  O     s     0.750000    0.928938    0.071062    0.000000
   441  O     s     0.928938    0.571062    0.250000    0.000000
   442  O     s     0.928938    0.928938    0.250000    0.000000
   443  O     s     0.571062    0.928938    0.250000    0.000000
   444  O     s     0.571062    0.571062    0.250000    0.000000
   445  O     s     0.821062    0.500000    0.178938    0.000000
   446  O     s     0.500000    0.821062    0.178938    0.000000
   447  O     s     0.678938    0.500000    0.178938    0.000000
   448  O     s     0.500000    0.678938    0.178938    0.000000
   449  O     s     0.821062    0.500000    0.321062    0.000000
   450  O     s     0.500000    0.821062    0.321062    0.000000
   451  O     s     0.678938    0.500000    0.321062    0.000000
   452  O     s     0.500000    0.678938    0.321062    0.000000
   453  O     s     0.678938    0.821062    0.000000    0.000000
   454  O     s     0.678938    0.678938    0.000000    0.000000
   455  O     s     0.821062    0.678938    0.000000    0.000000
   456  O     s     0.821062    0.821062    0.000000    0.000000
   457  O     s     0.571062    0.750000    0.928938    0.000000
   458  O     s     0.750000    0.571062    0.928938    0.000000
   459  O     s     0.928938    0.750000    0.928938    0.000000
   460  O     s     0.750000    0.928938    0.928938    0.000000
   461  O     s     0.571062    0.750000    0.571062    0.000000
   462  O     s     0.750000    0.571062    0.571062    0.000000
   463  O     s     0.928938    0.750000    0.571062    0.000000
   464  O     s     0.750000    0.928938    0.571062    0.000000
   465  O     s     0.928938    0.571062    0.750000    0.000000
   466  O     s     0.928938    0.928938    0.750000    0.000000
   467  O     s     0.571062    0.928938    0.750000    0.000000
   468  O     s     0.571062    0.571062    0.750000    0.000000
   469  O     s     0.821062    0.500000    0.678938    0.000000
   470  O     s     0.500000    0.821062    0.678938    0.000000
[...]
    228 O     c       0.000000      0.000000      0.000000      0.000000
    229 O     c       0.000000      0.000000      0.000000      0.000000
    230 Si    c       0.000000      0.000000      0.000000      0.000000
    231 O     c       0.000000      0.000000      0.000000      0.000000
    232 Si    c       0.000000      0.000000      0.000000      0.000000
    233 O     c       0.000000      0.000000      0.000000      0.000000
    234 Si    c       0.000000      0.000000      0.000000      0.000000
    235 O     c       0.000000      0.000000      0.000000      0.000000
    236 Si    c       0.000000      0.000000      0.000000      0.000000
    237 Si    c       0.000000      0.000000      0.000000      0.000000
    238 Si    c       0.000000      0.000000      0.000000      0.000000
    239 Si    c       0.000000      0.000000      0.000000      0.000000
    240 Si    c       0.000000      0.000000      0.000000      0.000000
    241 O     c       0.000000      0.000000      0.000000      0.000000
    242 O     c       0.000000      0.000000      0.000000      0.000000
    243 O     c       0.000000      0.000000      0.000000      0.000000
    244 O     c       0.000000      0.000000      0.000000      0.000000
    245 O     c       0.000000      0.000000      0.000000      0.000000
    246 O     c       0.000000      0.000000      0.000000      0.000000
    247 O     c       0.000000      0.000000      0.000000      0.000000
    248 O     c       0.000000      0.000000      0.000000      0.000000
    249 O     c       0.000000      0.000000      0.000000      0.000000
    250 O     c       0.000000      0.000000      0.000000      0.000000
    251 O     c       0.000000      0.000000      0.000000      0.000000
    252 O     c       0.000000      0.000000      0.000000      0.000000
    253 O     c       0.000000      0.000000      0.000000      0.000000
    254 Si    c       0.000000      0.000000      0.000000      0.000000
    255 O     c       0.000000      0.000000      0.000000      0.000000
    256 Si    c       0.000000      0.000000      0.000000      0.000000
    257 O     c       0.000000      0.000000      0.000000      0.000000
    258 Si    c       0.000000      0.000000      0.000000      0.000000
    259 O     c       0.000000      0.000000      0.000000      0.000000
    260 Si    c       0.000000      0.000000      0.000000      0.000000
    261 O     c       0.000000      0.000000      0.000000      0.000000
    262 O     c       0.000000      0.000000      0.000000      0.000000
    263 O     c       0.000000      0.000000      0.000000      0.000000
    264 O     c       0.000000      0.000000      0.000000      0.000000
    265 O     c       0.000000      0.000000      0.000000      0.000000
    266 Si    c       0.000000      0.000000      0.000000      0.000000
    267 O     c       0.000000      0.000000      0.000000      0.000000
    268 Si    c       0.000000      0.000000      0.000000      0.000000
    269 O     c       0.000000      0.000000      0.000000      0.000000
    270 Si    c       0.000000      0.000000      0.000000      0.000000
    271 O     c       0.000000      0.000000      0.000000      0.000000
    272 Si    c       0.000000      0.000000      0.000000      0.000000
    273 Si    c       0.000000      0.000000      0.000000      0.000000
    274 Si    c       0.000000      0.000000      0.000000      0.000000
    275 Si    c       0.000000      0.000000      0.000000      0.000000
    276 Si    c       0.000000      0.000000      0.000000      0.000000
    277 O     c       0.000000      0.000000      0.000000      0.000000
    278 O     c       0.000000      0.000000      0.000000      0.000000
    279 O     c       0.000000      0.000000      0.000000      0.000000
    280 O     c       0.000000      0.000000      0.000000      0.000000
    281 O     c       0.000000      0.000000      0.000000      0.000000
    282 O     c       0.000000      0.000000      0.000000      0.000000
    283 O     c       0.000000      0.000000      0.000000      0.000000
    284 O     c       0.000000      0.000000      0.000000      0.000000
    285 O     c       0.000000      0.000000      0.000000      0.000000
    286 O     c       0.000000      0.000000      0.000000      0.000000
    287 O     c       0.000000      0.000000      0.000000      0.000000
    288 O     c       0.000000      0.000000      0.000000      0.000000
    289 O     s       0.002211     -0.000000     -0.002211      0.000000
    290 O     s      -0.000000      0.002211     -0.002211      0.000000
    291 O     s      -0.002211      0.000000     -0.002211      0.000000
    292 O     s      -0.000000     -0.002211     -0.002211      0.000000
    293 O     s       0.002211      0.000000      0.002211      0.000000
    294 O     s       0.000000      0.002211      0.002211      0.000000
    295 O     s      -0.002211      0.000000      0.002211      0.000000
    296 O     s       0.000000     -0.002211      0.002211      0.000000
    297 O     s      -0.002211      0.002211     -0.000000      0.000000
    298 O     s      -0.002211     -0.002211     -0.000000      0.000000
    299 O     s       0.002211     -0.002211     -0.000000      0.000000
    300 O     s       0.002211      0.002211     -0.000000      0.000000
    301 O     s       0.002211     -0.000000     -0.002211      0.000000
    302 O     s      -0.000000      0.002211     -0.002211      0.000000
    303 O     s      -0.002211      0.000000     -0.002211      0.000000
    304 O     s      -0.000000     -0.002211     -0.002211      0.000000
    305 O     s       0.002211     -0.000000      0.002211      0.000000
    306 O     s      -0.000000      0.002211      0.002211      0.000000
    307 O     s      -0.002211     -0.000000      0.002211      0.000000
    308 O     s      -0.000000     -0.002211      0.002211      0.000000
    309 O     s      -0.002211      0.002211      0.000000      0.000000
    310 O     s      -0.002211     -0.002211     -0.000000      0.000000
    311 O     s       0.002211     -0.002211      0.000000      0.000000
    312 O     s       0.002211      0.002211     -0.000000      0.000000
    313 O     s       0.002211      0.000000     -0.002211      0.000000
    314 O     s       0.000000      0.002211     -0.002211      0.000000
    315 O     s      -0.002211      0.000000     -0.002211      0.000000
    316 O     s       0.000000     -0.002211     -0.002211      0.000000
    317 O     s       0.002211      0.000000      0.002211      0.000000
    318 O     s      -0.000000      0.002211      0.002211      0.000000
    319 O     s      -0.002211     -0.000000      0.002211      0.000000
    320 O     s      -0.000000     -0.002211      0.002211      0.000000
    321 O     s      -0.002211      0.002211      0.000000      0.000000
    322 O     s      -0.002211     -0.002211      0.000000      0.000000
    323 O     s       0.002211     -0.002211      0.000000      0.000000
    324 O     s       0.002211      0.002211      0.000000      0.000000
    325 O     s       0.002211     -0.000000     -0.002211      0.000000
    326 O     s      -0.000000      0.002211     -0.002211      0.000000
    327 O     s      -0.002211      0.000000     -0.002211      0.000000
    328 O     s      -0.000000     -0.002211     -0.002211      0.000000
    329 O     s       0.002211     -0.000000      0.002211      0.000000
    330 O     s      -0.000000      0.002211      0.002211      0.000000
    331 O     s      -0.002211     -0.000000      0.002211      0.000000
    332 O     s      -0.000000     -0.002211      0.002211      0.000000
    333 O     s      -0.002211      0.002211      0.000000      0.000000
    334 O     s      -0.002211     -0.002211      0.000000      0.000000
    335 O     s       0.002211     -0.002211      0.000000      0.000000
    336 O     s       0.002211      0.002211     -0.000000      0.000000
    337 O     s       0.002211      0.000000     -0.002211      0.000000
    338 O     s       0.000000      0.002211     -0.002211      0.000000
    339 O     s      -0.002211      0.000000     -0.002211      0.000000
    340 O     s       0.000000     -0.002211     -0.002211      0.000000
    341 O     s       0.002211     -0.000000      0.002211      0.000000
    342 O     s       0.000000      0.002211      0.002211      0.000000
    343 O     s      -0.002211      0.000000      0.002211      0.000000
    344 O     s       0.000000     -0.002211      0.002211      0.000000
    345 O     s      -0.002211      0.002211      0.000000      0.000000
    346 O     s      -0.002211     -0.002211      0.000000      0.000000
    347 O     s       0.002211     -0.002211     -0.000000      0.000000
    348 O     s       0.002211      0.002211     -0.000000      0.000000
    349 O     s       0.002211      0.000000     -0.002211      0.000000
    350 O     s       0.000000      0.002211     -0.002211      0.000000
    351 O     s      -0.002211      0.000000     -0.002211      0.000000
    352 O     s       0.000000     -0.002211     -0.002211      0.000000
    353 O     s       0.002211     -0.000000      0.002211      0.000000
    354 O     s      -0.000000      0.002211      0.002211      0.000000
    355 O     s      -0.002211      0.000000      0.002211      0.000000
    356 O     s       0.000000     -0.002211      0.002211      0.000000
    357 O     s      -0.002211      0.002211      0.000000      0.000000
    358 O     s      -0.002211     -0.002211     -0.000000      0.000000
    359 O     s       0.002211     -0.002211      0.000000      0.000000
    360 O     s       0.002211      0.002211      0.000000      0.000000
    361 O     s       0.002211     -0.000000     -0.002211      0.000000
    362 O     s       0.000000      0.002211     -0.002211      0.000000
    363 O     s      -0.002211     -0.000000     -0.002211      0.000000
    364 O     s       0.000000     -0.002211     -0.002211      0.000000
    365 O     s       0.002211     -0.000000      0.002211      0.000000
    366 O     s       0.000000      0.002211      0.002211      0.000000
    367 O     s      -0.002211      0.000000      0.002211      0.000000
    368 O     s       0.000000     -0.002211      0.002211      0.000000
    369 O     s      -0.002211      0.002211      0.000000      0.000000
    370 O     s      -0.002211     -0.002211      0.000000      0.000000
    371 O     s       0.002211     -0.002211      0.000000      0.000000
    372 O     s       0.002211      0.002211     -0.000000      0.000000
    373 O     s       0.002211      0.000000     -0.002211      0.000000
    374 O     s       0.000000      0.002211     -0.002211      0.000000
    375 O     s      -0.002211      0.000000     -0.002211      0.000000
    376 O     s       0.000000     -0.002211     -0.002211      0.000000
    377 O     s       0.002211      0.000000      0.002211      0.000000
    378 O     s       0.000000      0.002211      0.002211      0.000000
    379 O     s      -0.002211      0.000000      0.002211      0.000000
    380 O     s       0.000000     -0.002211      0.002211      0.000000
    381 O     s      -0.002211      0.002211     -0.000000      0.000000
    382 O     s      -0.002211     -0.002211      0.000000      0.000000
    383 O     s       0.002211     -0.002211      0.000000      0.000000
    384 O     s       0.002211      0.002211      0.000000      0.000000
    385 O     s       0.002211      0.000000     -0.002211      0.000000
    386 O     s      -0.000000      0.002211     -0.002211      0.000000
    387 O     s      -0.002211      0.000000     -0.002211      0.000000
    388 O     s      -0.000000     -0.002211     -0.002211      0.000000
    389 O     s       0.002211     -0.000000      0.002211      0.000000
    390 O     s       0.000000      0.002211      0.002211      0.000000
    391 O     s      -0.002211      0.000000      0.002211      0.000000
    392 O     s      -0.000000     -0.002211      0.002211      0.000000
    393 O     s      -0.002211      0.002211      0.000000      0.000000
    394 O     s      -0.002211     -0.002211     -0.000000      0.000000
    395 O     s       0.002211     -0.002211     -0.000000      0.000000
    396 O     s       0.002211      0.002211     -0.000000      0.000000
    397 O     s       0.002211      0.000000     -0.002211      0.000000
    398 O     s       0.000000      0.002211     -0.002211      0.000000
    399 O     s      -0.002211     -0.000000     -0.002211      0.000000
    400 O     s       0.000000     -0.002211     -0.002211      0.000000
    401 O     s       0.002211      0.000000      0.002211      0.000000
    402 O     s       0.000000      0.002211      0.002211      0.000000
    403 O     s      -0.002211      0.000000      0.002211      0.000000
    404 O     s       0.000000     -0.002211      0.002211      0.000000
    405 O     s      -0.002211      0.002211      0.000000      0.000000
    406 O     s      -0.002211     -0.002211     -0.000000      0.000000
    407 O     s       0.002211     -0.002211     -0.000000      0.000000
    408 O     s       0.002211      0.002211      0.000000      0.000000
    409 O     s       0.002211      0.000000     -0.002211      0.000000
    410 O     s       0.000000      0.002211     -0.002211      0.000000
    411 O     s      -0.002211      0.000000     -0.002211      0.000000
    412 O     s      -0.000000     -0.002211     -0.002211      0.000000
    413 O     s       0.002211     -0.000000      0.002211      0.000000
    414 O     s       0.000000      0.002211      0.002211      0.000000
    415 O     s      -0.002211      0.000000      0.002211      0.000000
    416 O     s      -0.000000     -0.002211      0.002211      0.000000
    417 O     s      -0.002211      0.002211      0.000000      0.000000
    418 O     s      -0.002211     -0.002211      0.000000      0.000000
    419 O     s       0.002211     -0.002211      0.000000      0.000000
    420 O     s       0.002211      0.002211      0.000000      0.000000
    421 O     s       0.002211     -0.000000     -0.002211      0.000000
    422 O     s       0.000000      0.002211     -0.002211      0.000000
    423 O     s      -0.002211     -0.000000     -0.002211      0.000000
    424 O     s       0.000000     -0.002211     -0.002211      0.000000
    425 O     s       0.002211     -0.000000      0.002211      0.000000
    426 O     s       0.000000      0.002211      0.002211      0.000000
    427 O     s      -0.002211     -0.000000      0.002211      0.000000
    428 O     s       0.000000     -0.002211      0.002211      0.000000
    429 O     s      -0.002211      0.002211      0.000000      0.000000
    430 O     s      -0.002211     -0.002211      0.000000      0.000000
    431 O     s       0.002211     -0.002211      0.000000      0.000000
    432 O     s       0.002211      0.002211     -0.000000      0.000000
    433 O     s       0.002211      0.000000     -0.002211      0.000000
    434 O     s      -0.000000      0.002211     -0.002211      0.000000
    435 O     s      -0.002211     -0.000000     -0.002211      0.000000
    436 O     s      -0.000000     -0.002211     -0.002211      0.000000
    437 O     s       0.002211      0.000000      0.002211      0.000000
    438 O     s       0.000000      0.002211      0.002211      0.000000
    439 O     s      -0.002211      0.000000      0.002211      0.000000
    440 O     s      -0.000000     -0.002211      0.002211      0.000000
    441 O     s      -0.002211      0.002211      0.000000      0.000000
    442 O     s      -0.002211     -0.002211     -0.000000      0.000000
    443 O     s       0.002211     -0.002211     -0.000000      0.000000
    444 O     s       0.002211      0.002211     -0.000000      0.000000
    445 O     s       0.002211      0.000000     -0.002211      0.000000
    446 O     s       0.000000      0.002211     -0.002211      0.000000
    447 O     s      -0.002211     -0.000000     -0.002211      0.000000
    448 O     s      -0.000000     -0.002211     -0.002211      0.000000
    449 O     s       0.002211      0.000000      0.002211      0.000000
    450 O     s       0.000000      0.002211      0.002211      0.000000
    451 O     s      -0.002211      0.000000      0.002211      0.000000
    452 O     s      -0.000000     -0.002211      0.002211      0.000000
    453 O     s      -0.002211      0.002211      0.000000      0.000000
    454 O     s      -0.002211     -0.002211     -0.000000      0.000000
    455 O     s       0.002211     -0.002211      0.000000      0.000000
    456 O     s       0.002211      0.002211     -0.000000      0.000000
    457 O     s       0.002211     -0.000000     -0.002211      0.000000
    458 O     s      -0.000000      0.002211     -0.002211      0.000000
    459 O     s      -0.002211      0.000000     -0.002211      0.000000
    460 O     s       0.000000     -0.002211     -0.002211      0.000000
    461 O     s       0.002211      0.000000      0.002211      0.000000
    462 O     s      -0.000000      0.002211      0.002211      0.000000
    463 O     s      -0.002211      0.000000      0.002211      0.000000
    464 O     s      -0.000000     -0.002211      0.002211      0.000000
    465 O     s      -0.002211      0.002211      0.000000      0.000000
    466 O     s      -0.002211     -0.002211      0.000000      0.000000
    467 O     s       0.002211     -0.002211      0.000000      0.000000
    468 O     s       0.002211      0.002211      0.000000      0.000000
    469 O     s       0.002211      0.000000     -0.002211      0.000000
    470 O     s      -0.000000      0.002211     -0.002211      0.000000
    471 O     s      -0.002211     -0.000000     -0.002211      0.000000
    472 O     s      -0.000000     -0.002211     -0.002211      0.000000
    473 O     s       0.002211      0.000000      0.002211      0.000000
    474 O     s       0.000000      0.002211      0.002211      0.000000
    475 O     s      -0.002211      0.000000      0.002211      0.000000
    476 O     s      -0.000000     -0.002211      0.002211      0.000000
    477 O     s      -0.002211      0.002211     -0.000000      0.000000
    478 O     s      -0.002211     -0.002211      0.000000      0.000000
    479 O     s       0.002211     -0.002211     -0.000000      0.000000
    480 O     s       0.002211      0.002211     -0.000000      0.000000
--------------------------------------------------------------------------------
  Maximum abs         0.002211      0.002211      0.002211      0.000000
--------------------------------------------------------------------------------


  Time to end of optimisation =      22.0902 seconds


  Peak dynamic memory used =      11.73 MB 


  Timing analysis for GULP :

--------------------------------------------------------------------------------
  Task / Subroutine                                          Time (Seconds)
--------------------------------------------------------------------------------
  Calculation of reciprocal space energy and derivatives          8.1389
  Calculation of real space energy and derivatives                8.1406
  Calculation of three-body energy and derivatives                2.5472
  Calculation and manipulation of Hessian matrix                  3.1133
  Calculation of matrix inversion                                 0.0659
  Symmetry generation of equivalent positions                     0.0006
--------------------------------------------------------------------------------
  Total CPU time                                                 22.0902
--------------------------------------------------------------------------------


  Dump file written as ReferenceDataBase/SOD.grs
  CIF file written as ReferenceDataBase/SOD_opt.cif


  Job Finished at 00:52.15  6th February   2024                               

