********************************************************************************
*                       GENERAL UTILITY LATTICE PROGRAM                        *
*                                 Julian Gale                                  *
*                       Curtin Institute for Computation                       *
*                    School of Molecular and Life Sciences                     *
*                    Curtin University, Western Australia                      *
********************************************************************************
* Version = 6.1.2 * Last modified =   3rd November 2022                        *
********************************************************************************
*  optimise     - perform optimisation run                                     *
*  conv         - constant volume calculation                                  *
*  shell        - only shells and radii to be optimised                        *
*  nosymmetry   - turn off symmetry after initial structure generation         *
********************************************************************************

  Job Started  at 00:52.16  6th February   2024                               

  Number of CPUs =     1


  Total number of configurations input =      1

********************************************************************************
*  Input for Configuration =   1 : ReferenceDataBase/STW                       *
********************************************************************************

  Formula = O120Si60                                                    

  Number of irreducible atoms/shells =     300


  Total number atoms/shells =     300

  Dimensionality = 3               :  Bulk   



  Cartesian lattice vectors (Angstroms) :

       11.887000    0.000000    0.000000
       -5.943500   10.294444    0.000000
        0.000000    0.000000   29.915000

  Cell parameters (Angstroms/Degrees):

  a =      11.8870    alpha =  90.0000
  b =      11.8870    beta  =  90.0000
  c =      29.9150    gamma = 120.0000

  Initial cell volume =        3660.700211 Angs**3

  Temperature of configuration =   0.00     K 

  Pressure of configuration =         0.000 GPa 

  Fractional coordinates of asymmetric unit :

--------------------------------------------------------------------------------
   No.  Atomic       x           y          z         Charge      Occupancy
        Label      (Frac)      (Frac)     (Frac)        (e)         (Frac)  
--------------------------------------------------------------------------------
      1 O     c    0.912800    0.000000    0.000000     0.86902    1.000000    
      2 O     c    0.332800    0.572600    0.333700     0.86902    1.000000    
      3 O     c    0.121600    0.212900    0.972800     0.86902    1.000000    
      4 O     c    0.934400    0.065600    0.916700     0.86902    1.000000    
      5 O     c    0.899800    0.208100    0.976800     0.86902    1.000000    
      6 O     c    0.640200    0.320100    0.083300     0.86902    1.000000    
      7 O     c    0.375800    0.344600    0.966400     0.86902    1.000000    
      8 O     c    0.779700    0.316900    0.015400     0.86902    1.000000    
      9 O     c    0.775200    0.531000    0.034800     0.86902    1.000000    
     10 O     c    0.231100    0.324600    0.897100     0.86902    1.000000    
     11 O     c    0.593700    0.559400    0.985800     0.86902    1.000000    
     12 O     c    0.583700    0.416300    0.916700     0.86902    1.000000    
     13 Si    c    0.691700    0.374800    0.033800     4.00000    1.000000    
     14 Si    c    0.531800    0.413800    0.966700     4.00000    1.000000    
     15 Si    c    0.299700    0.394200    0.850800     4.00000    1.000000    
     16 Si    c    0.243200    0.338000    0.950600     4.00000    1.000000    
     17 Si    c    0.967000    0.122100    0.966600     4.00000    1.000000    
     18 O     c    0.912800    0.912800    0.166667     0.86902    1.000000    
     19 O     c    0.760200    0.332800    0.500367     0.86902    1.000000    
     20 O     c    0.908700    0.121600    0.139467     0.86902    1.000000    
     21 O     c    0.868800    0.934400    0.083367     0.86902    1.000000    
     22 O     c    0.691700    0.899800    0.143467     0.86902    1.000000    
     23 O     c    0.320100    0.640200    0.249967     0.86902    1.000000    
     24 O     c    0.031200    0.375800    0.133067     0.86902    1.000000    
     25 O     c    0.462800    0.779700    0.182067     0.86902    1.000000    
     26 O     c    0.244200    0.775200    0.201467     0.86902    1.000000    
     27 O     c    0.906500    0.231100    0.063767     0.86902    1.000000    
     28 O     c    0.034300    0.593700    0.152467     0.86902    1.000000    
     29 O     c    0.167400    0.583700    0.083367     0.86902    1.000000    
     30 Si    c    0.316900    0.691700    0.200467     4.00000    1.000000    
     31 Si    c    0.118000    0.531800    0.133367     4.00000    1.000000    
     32 Si    c    0.905500    0.299700    0.017467     4.00000    1.000000    
     33 Si    c    0.905200    0.243200    0.117267     4.00000    1.000000    
     34 Si    c    0.844900    0.967000    0.133267     4.00000    1.000000    
     35 O     c    0.000000    0.912800    0.333333     0.86902    1.000000    
     36 O     c    0.427400    0.760200    0.667033     0.86902    1.000000    
     37 O     c    0.787100    0.908700    0.306133     0.86902    1.000000    
     38 O     c    0.934400    0.868800    0.250033     0.86902    1.000000    
     39 O     c    0.791900    0.691700    0.310133     0.86902    1.000000    
     40 O     c    0.679900    0.320100    0.416633     0.86902    1.000000    
     41 O     c    0.655400    0.031200    0.299733     0.86902    1.000000    
     42 O     c    0.683100    0.462800    0.348733     0.86902    1.000000    
     43 O     c    0.469000    0.244200    0.368133     0.86902    1.000000    
     44 O     c    0.675400    0.906500    0.230433     0.86902    1.000000    
     45 O     c    0.440600    0.034300    0.319133     0.86902    1.000000    
     46 O     c    0.583700    0.167400    0.250033     0.86902    1.000000    
     47 Si    c    0.625200    0.316900    0.367133     4.00000    1.000000    
     48 Si    c    0.586200    0.118000    0.300033     4.00000    1.000000    
     49 Si    c    0.605800    0.905500    0.184133     4.00000    1.000000    
     50 Si    c    0.662000    0.905200    0.283933     4.00000    1.000000    
     51 Si    c    0.877900    0.844900    0.299933     4.00000    1.000000    
     52 O     c    0.087200    0.000000    0.500000     0.86902    1.000000    
     53 O     c    0.667200    0.427400    0.833700     0.86902    1.000000    
     54 O     c    0.878400    0.787100    0.472800     0.86902    1.000000    
     55 O     c    0.065600    0.934400    0.416700     0.86902    1.000000    
     56 O     c    0.100200    0.791900    0.476800     0.86902    1.000000    
     57 O     c    0.359800    0.679900    0.583300     0.86902    1.000000    
     58 O     c    0.624200    0.655400    0.466400     0.86902    1.000000    
     59 O     c    0.220300    0.683100    0.515400     0.86902    1.000000    
     60 O     c    0.224800    0.469000    0.534800     0.86902    1.000000    
     61 O     c    0.768900    0.675400    0.397100     0.86902    1.000000    
     62 O     c    0.406300    0.440600    0.485800     0.86902    1.000000    
     63 O     c    0.416300    0.583700    0.416700     0.86902    1.000000    
     64 Si    c    0.308300    0.625200    0.533800     4.00000    1.000000    
     65 Si    c    0.468200    0.586200    0.466700     4.00000    1.000000    
     66 Si    c    0.700300    0.605800    0.350800     4.00000    1.000000    
     67 Si    c    0.756800    0.662000    0.450600     4.00000    1.000000    
     68 Si    c    0.033000    0.877900    0.466600     4.00000    1.000000    
     69 O     c    0.087200    0.087200    0.666667     0.86902    1.000000    
     70 O     c    0.239800    0.667200    0.000367     0.86902    1.000000    
     71 O     c    0.091300    0.878400    0.639467     0.86902    1.000000    
     72 O     c    0.131200    0.065600    0.583367     0.86902    1.000000    
     73 O     c    0.308300    0.100200    0.643467     0.86902    1.000000    
     74 O     c    0.679900    0.359800    0.749967     0.86902    1.000000    
     75 O     c    0.968800    0.624200    0.633067     0.86902    1.000000    
     76 O     c    0.537200    0.220300    0.682067     0.86902    1.000000    
     77 O     c    0.755800    0.224800    0.701467     0.86902    1.000000    
     78 O     c    0.093500    0.768900    0.563767     0.86902    1.000000    
     79 O     c    0.965700    0.406300    0.652467     0.86902    1.000000    
     80 O     c    0.832600    0.416300    0.583367     0.86902    1.000000    
     81 Si    c    0.683100    0.308300    0.700467     4.00000    1.000000    
     82 Si    c    0.882000    0.468200    0.633367     4.00000    1.000000    
     83 Si    c    0.094500    0.700300    0.517467     4.00000    1.000000    
     84 Si    c    0.094800    0.756800    0.617267     4.00000    1.000000    
     85 Si    c    0.155100    0.033000    0.633267     4.00000    1.000000    
     86 O     c    0.000000    0.087200    0.833333     0.86902    1.000000    
     87 O     c    0.572600    0.239800    0.167033     0.86902    1.000000    
     88 O     c    0.212900    0.091300    0.806133     0.86902    1.000000    
     89 O     c    0.065600    0.131200    0.750033     0.86902    1.000000    
     90 O     c    0.208100    0.308300    0.810133     0.86902    1.000000    
     91 O     c    0.320100    0.679900    0.916633     0.86902    1.000000    
     92 O     c    0.344600    0.968800    0.799733     0.86902    1.000000    
     93 O     c    0.316900    0.537200    0.848733     0.86902    1.000000    
     94 O     c    0.531000    0.755800    0.868133     0.86902    1.000000    
     95 O     c    0.324600    0.093500    0.730433     0.86902    1.000000    
     96 O     c    0.559400    0.965700    0.819133     0.86902    1.000000    
     97 O     c    0.416300    0.832600    0.750033     0.86902    1.000000    
     98 Si    c    0.374800    0.683100    0.867133     4.00000    1.000000    
     99 Si    c    0.413800    0.882000    0.800033     4.00000    1.000000    
    100 Si    c    0.394200    0.094500    0.684133     4.00000    1.000000    
    101 Si    c    0.338000    0.094800    0.783933     4.00000    1.000000    
    102 Si    c    0.122100    0.155100    0.799933     4.00000    1.000000    
    103 O     c    0.427400    0.667200    0.499633     0.86902    1.000000    
    104 O     c    0.787100    0.878400    0.860533     0.86902    1.000000    
    105 O     c    0.791900    0.100200    0.856533     0.86902    1.000000    
    106 O     c    0.655400    0.624200    0.866933     0.86902    1.000000    
    107 O     c    0.683100    0.220300    0.817933     0.86902    1.000000    
    108 O     c    0.469000    0.224800    0.798533     0.86902    1.000000    
    109 O     c    0.675400    0.768900    0.936233     0.86902    1.000000    
    110 O     c    0.440600    0.406300    0.847533     0.86902    1.000000    
    111 Si    c    0.625200    0.308300    0.799533     4.00000    1.000000    
    112 Si    c    0.586200    0.468200    0.866633     4.00000    1.000000    
    113 Si    c    0.605800    0.700300    0.982533     4.00000    1.000000    
    114 Si    c    0.662000    0.756800    0.882733     4.00000    1.000000    
    115 Si    c    0.877900    0.033000    0.866733     4.00000    1.000000    
    116 O     c    0.760200    0.427400    0.666300     0.86902    1.000000    
    117 O     c    0.908700    0.787100    0.027200     0.86902    1.000000    
    118 O     c    0.691700    0.791900    0.023200     0.86902    1.000000    
    119 O     c    0.031200    0.655400    0.033600     0.86902    1.000000    
    120 O     c    0.462800    0.683100    0.984600     0.86902    1.000000    
    121 O     c    0.244200    0.469000    0.965200     0.86902    1.000000    
    122 O     c    0.906500    0.675400    0.102900     0.86902    1.000000    
    123 O     c    0.034300    0.440600    0.014200     0.86902    1.000000    
    124 Si    c    0.316900    0.625200    0.966200     4.00000    1.000000    
    125 Si    c    0.118000    0.586200    0.033300     4.00000    1.000000    
    126 Si    c    0.905500    0.605800    0.149200     4.00000    1.000000    
    127 Si    c    0.905200    0.662000    0.049400     4.00000    1.000000    
    128 Si    c    0.844900    0.877900    0.033400     4.00000    1.000000    
    129 O     c    0.332800    0.760200    0.832967     0.86902    1.000000    
    130 O     c    0.121600    0.908700    0.193867     0.86902    1.000000    
    131 O     c    0.899800    0.691700    0.189867     0.86902    1.000000    
    132 O     c    0.375800    0.031200    0.200267     0.86902    1.000000    
    133 O     c    0.779700    0.462800    0.151267     0.86902    1.000000    
    134 O     c    0.775200    0.244200    0.131867     0.86902    1.000000    
    135 O     c    0.231100    0.906500    0.269567     0.86902    1.000000    
    136 O     c    0.593700    0.034300    0.180867     0.86902    1.000000    
    137 Si    c    0.691700    0.316900    0.132867     4.00000    1.000000    
    138 Si    c    0.531800    0.118000    0.199967     4.00000    1.000000    
    139 Si    c    0.299700    0.905500    0.315867     4.00000    1.000000    
    140 Si    c    0.243200    0.905200    0.216067     4.00000    1.000000    
    141 Si    c    0.967000    0.844900    0.200067     4.00000    1.000000    
    142 O     c    0.572600    0.332800    0.999633     0.86902    1.000000    
    143 O     c    0.212900    0.121600    0.360533     0.86902    1.000000    
    144 O     c    0.208100    0.899800    0.356533     0.86902    1.000000    
    145 O     c    0.344600    0.375800    0.366933     0.86902    1.000000    
    146 O     c    0.316900    0.779700    0.317933     0.86902    1.000000    
    147 O     c    0.531000    0.775200    0.298533     0.86902    1.000000    
    148 O     c    0.324600    0.231100    0.436233     0.86902    1.000000    
    149 O     c    0.559400    0.593700    0.347533     0.86902    1.000000    
    150 Si    c    0.374800    0.691700    0.299533     4.00000    1.000000    
    151 Si    c    0.413800    0.531800    0.366633     4.00000    1.000000    
    152 Si    c    0.394200    0.299700    0.482533     4.00000    1.000000    
    153 Si    c    0.338000    0.243200    0.382733     4.00000    1.000000    
    154 Si    c    0.122100    0.967000    0.366733     4.00000    1.000000    
    155 O     c    0.239800    0.572600    0.166300     0.86902    1.000000    
    156 O     c    0.091300    0.212900    0.527200     0.86902    1.000000    
    157 O     c    0.308300    0.208100    0.523200     0.86902    1.000000    
    158 O     c    0.968800    0.344600    0.533600     0.86902    1.000000    
    159 O     c    0.537200    0.316900    0.484600     0.86902    1.000000    
    160 O     c    0.755800    0.531000    0.465200     0.86902    1.000000    
    161 O     c    0.093500    0.324600    0.602900     0.86902    1.000000    
    162 O     c    0.965700    0.559400    0.514200     0.86902    1.000000    
    163 Si    c    0.683100    0.374800    0.466200     4.00000    1.000000    
    164 Si    c    0.882000    0.413800    0.533300     4.00000    1.000000    
    165 Si    c    0.094500    0.394200    0.649200     4.00000    1.000000    
    166 Si    c    0.094800    0.338000    0.549400     4.00000    1.000000    
    167 Si    c    0.155100    0.122100    0.533400     4.00000    1.000000    
    168 O     c    0.667200    0.239800    0.332967     0.86902    1.000000    
    169 O     c    0.878400    0.091300    0.693867     0.86902    1.000000    
    170 O     c    0.100200    0.308300    0.689867     0.86902    1.000000    
    171 O     c    0.624200    0.968800    0.700267     0.86902    1.000000    
    172 O     c    0.220300    0.537200    0.651267     0.86902    1.000000    
    173 O     c    0.224800    0.755800    0.631867     0.86902    1.000000    
    174 O     c    0.768900    0.093500    0.769567     0.86902    1.000000    
    175 O     c    0.406300    0.965700    0.680867     0.86902    1.000000    
    176 Si    c    0.308300    0.683100    0.632867     4.00000    1.000000    
    177 Si    c    0.468200    0.882000    0.699967     4.00000    1.000000    
    178 Si    c    0.700300    0.094500    0.815867     4.00000    1.000000    
    179 Si    c    0.756800    0.094800    0.716067     4.00000    1.000000    
    180 Si    c    0.033000    0.155100    0.700067     4.00000    1.000000    
    181 O     s    0.912800 *  0.000000 *  0.000000 *  -2.86902    1.000000    
    182 O     s    0.332800 *  0.572600 *  0.333700 *  -2.86902    1.000000    
    183 O     s    0.121600 *  0.212900 *  0.972800 *  -2.86902    1.000000    
    184 O     s    0.934400 *  0.065600 *  0.916700 *  -2.86902    1.000000    
    185 O     s    0.899800 *  0.208100 *  0.976800 *  -2.86902    1.000000    
    186 O     s    0.640200 *  0.320100 *  0.083300 *  -2.86902    1.000000    
    187 O     s    0.375800 *  0.344600 *  0.966400 *  -2.86902    1.000000    
    188 O     s    0.779700 *  0.316900 *  0.015400 *  -2.86902    1.000000    
    189 O     s    0.775200 *  0.531000 *  0.034800 *  -2.86902    1.000000    
    190 O     s    0.231100 *  0.324600 *  0.897100 *  -2.86902    1.000000    
    191 O     s    0.593700 *  0.559400 *  0.985800 *  -2.86902    1.000000    
    192 O     s    0.583700 *  0.416300 *  0.916700 *  -2.86902    1.000000    
    193 O     s    0.912800 *  0.912800 *  0.166667 *  -2.86902    1.000000    
    194 O     s    0.760200 *  0.332800 *  0.500367 *  -2.86902    1.000000    
    195 O     s    0.908700 *  0.121600 *  0.139467 *  -2.86902    1.000000    
    196 O     s    0.868800 *  0.934400 *  0.083367 *  -2.86902    1.000000    
    197 O     s    0.691700 *  0.899800 *  0.143467 *  -2.86902    1.000000    
    198 O     s    0.320100 *  0.640200 *  0.249967 *  -2.86902    1.000000    
    199 O     s    0.031200 *  0.375800 *  0.133067 *  -2.86902    1.000000    
    200 O     s    0.462800 *  0.779700 *  0.182067 *  -2.86902    1.000000    
    201 O     s    0.244200 *  0.775200 *  0.201467 *  -2.86902    1.000000    
    202 O     s    0.906500 *  0.231100 *  0.063767 *  -2.86902    1.000000    
    203 O     s    0.034300 *  0.593700 *  0.152467 *  -2.86902    1.000000    
    204 O     s    0.167400 *  0.583700 *  0.083367 *  -2.86902    1.000000    
    205 O     s    0.000000 *  0.912800 *  0.333333 *  -2.86902    1.000000    
    206 O     s    0.427400 *  0.760200 *  0.667033 *  -2.86902    1.000000    
    207 O     s    0.787100 *  0.908700 *  0.306133 *  -2.86902    1.000000    
    208 O     s    0.934400 *  0.868800 *  0.250033 *  -2.86902    1.000000    
    209 O     s    0.791900 *  0.691700 *  0.310133 *  -2.86902    1.000000    
    210 O     s    0.679900 *  0.320100 *  0.416633 *  -2.86902    1.000000    
    211 O     s    0.655400 *  0.031200 *  0.299733 *  -2.86902    1.000000    
    212 O     s    0.683100 *  0.462800 *  0.348733 *  -2.86902    1.000000    
    213 O     s    0.469000 *  0.244200 *  0.368133 *  -2.86902    1.000000    
    214 O     s    0.675400 *  0.906500 *  0.230433 *  -2.86902    1.000000    
    215 O     s    0.440600 *  0.034300 *  0.319133 *  -2.86902    1.000000    
    216 O     s    0.583700 *  0.167400 *  0.250033 *  -2.86902    1.000000    
    217 O     s    0.087200 *  0.000000 *  0.500000 *  -2.86902    1.000000    
    218 O     s    0.667200 *  0.427400 *  0.833700 *  -2.86902    1.000000    
    219 O     s    0.878400 *  0.787100 *  0.472800 *  -2.86902    1.000000    
    220 O     s    0.065600 *  0.934400 *  0.416700 *  -2.86902    1.000000    
    221 O     s    0.100200 *  0.791900 *  0.476800 *  -2.86902    1.000000    
    222 O     s    0.359800 *  0.679900 *  0.583300 *  -2.86902    1.000000    
    223 O     s    0.624200 *  0.655400 *  0.466400 *  -2.86902    1.000000    
    224 O     s    0.220300 *  0.683100 *  0.515400 *  -2.86902    1.000000    
    225 O     s    0.224800 *  0.469000 *  0.534800 *  -2.86902    1.000000    
    226 O     s    0.768900 *  0.675400 *  0.397100 *  -2.86902    1.000000    
    227 O     s    0.406300 *  0.440600 *  0.485800 *  -2.86902    1.000000    
    228 O     s    0.416300 *  0.583700 *  0.416700 *  -2.86902    1.000000    
    229 O     s    0.087200 *  0.087200 *  0.666667 *  -2.86902    1.000000    
    230 O     s    0.239800 *  0.667200 *  0.000367 *  -2.86902    1.000000    
    231 O     s    0.091300 *  0.878400 *  0.639467 *  -2.86902    1.000000    
    232 O     s    0.131200 *  0.065600 *  0.583367 *  -2.86902    1.000000    
    233 O     s    0.308300 *  0.100200 *  0.643467 *  -2.86902    1.000000    
    234 O     s    0.679900 *  0.359800 *  0.749967 *  -2.86902    1.000000    
    235 O     s    0.968800 *  0.624200 *  0.633067 *  -2.86902    1.000000    
    236 O     s    0.537200 *  0.220300 *  0.682067 *  -2.86902    1.000000    
    237 O     s    0.755800 *  0.224800 *  0.701467 *  -2.86902    1.000000    
    238 O     s    0.093500 *  0.768900 *  0.563767 *  -2.86902    1.000000    
    239 O     s    0.965700 *  0.406300 *  0.652467 *  -2.86902    1.000000    
    240 O     s    0.832600 *  0.416300 *  0.583367 *  -2.86902    1.000000    
    241 O     s    0.000000 *  0.087200 *  0.833333 *  -2.86902    1.000000    
    242 O     s    0.572600 *  0.239800 *  0.167033 *  -2.86902    1.000000    
    243 O     s    0.212900 *  0.091300 *  0.806133 *  -2.86902    1.000000    
    244 O     s    0.065600 *  0.131200 *  0.750033 *  -2.86902    1.000000    
    245 O     s    0.208100 *  0.308300 *  0.810133 *  -2.86902    1.000000    
    246 O     s    0.320100 *  0.679900 *  0.916633 *  -2.86902    1.000000    
    247 O     s    0.344600 *  0.968800 *  0.799733 *  -2.86902    1.000000    
    248 O     s    0.316900 *  0.537200 *  0.848733 *  -2.86902    1.000000    
    249 O     s    0.531000 *  0.755800 *  0.868133 *  -2.86902    1.000000    
    250 O     s    0.324600 *  0.093500 *  0.730433 *  -2.86902    1.000000    
    251 O     s    0.559400 *  0.965700 *  0.819133 *  -2.86902    1.000000    
    252 O     s    0.416300 *  0.832600 *  0.750033 *  -2.86902    1.000000    
    253 O     s    0.427400 *  0.667200 *  0.499633 *  -2.86902    1.000000    
    254 O     s    0.787100 *  0.878400 *  0.860533 *  -2.86902    1.000000    
    255 O     s    0.791900 *  0.100200 *  0.856533 *  -2.86902    1.000000    
    256 O     s    0.655400 *  0.624200 *  0.866933 *  -2.86902    1.000000    
    257 O     s    0.683100 *  0.220300 *  0.817933 *  -2.86902    1.000000    
    258 O     s    0.469000 *  0.224800 *  0.798533 *  -2.86902    1.000000    
    259 O     s    0.675400 *  0.768900 *  0.936233 *  -2.86902    1.000000    
    260 O     s    0.440600 *  0.406300 *  0.847533 *  -2.86902    1.000000    
    261 O     s    0.760200 *  0.427400 *  0.666300 *  -2.86902    1.000000    
    262 O     s    0.908700 *  0.787100 *  0.027200 *  -2.86902    1.000000    
    263 O     s    0.691700 *  0.791900 *  0.023200 *  -2.86902    1.000000    
    264 O     s    0.031200 *  0.655400 *  0.033600 *  -2.86902    1.000000    
    265 O     s    0.462800 *  0.683100 *  0.984600 *  -2.86902    1.000000    
    266 O     s    0.244200 *  0.469000 *  0.965200 *  -2.86902    1.000000    
    267 O     s    0.906500 *  0.675400 *  0.102900 *  -2.86902    1.000000    
    268 O     s    0.034300 *  0.440600 *  0.014200 *  -2.86902    1.000000    
    269 O     s    0.332800 *  0.760200 *  0.832967 *  -2.86902    1.000000    
    270 O     s    0.121600 *  0.908700 *  0.193867 *  -2.86902    1.000000    
    271 O     s    0.899800 *  0.691700 *  0.189867 *  -2.86902    1.000000    
    272 O     s    0.375800 *  0.031200 *  0.200267 *  -2.86902    1.000000    
    273 O     s    0.779700 *  0.462800 *  0.151267 *  -2.86902    1.000000    
    274 O     s    0.775200 *  0.244200 *  0.131867 *  -2.86902    1.000000    
    275 O     s    0.231100 *  0.906500 *  0.269567 *  -2.86902    1.000000    
    276 O     s    0.593700 *  0.034300 *  0.180867 *  -2.86902    1.000000    
    277 O     s    0.572600 *  0.332800 *  0.999633 *  -2.86902    1.000000    
    278 O     s    0.212900 *  0.121600 *  0.360533 *  -2.86902    1.000000    
    279 O     s    0.208100 *  0.899800 *  0.356533 *  -2.86902    1.000000    
    280 O     s    0.344600 *  0.375800 *  0.366933 *  -2.86902    1.000000    
    281 O     s    0.316900 *  0.779700 *  0.317933 *  -2.86902    1.000000    
    282 O     s    0.531000 *  0.775200 *  0.298533 *  -2.86902    1.000000    
    283 O     s    0.324600 *  0.231100 *  0.436233 *  -2.86902    1.000000    
    284 O     s    0.559400 *  0.593700 *  0.347533 *  -2.86902    1.000000    
    285 O     s    0.239800 *  0.572600 *  0.166300 *  -2.86902    1.000000    
    286 O     s    0.091300 *  0.212900 *  0.527200 *  -2.86902    1.000000    
    287 O     s    0.308300 *  0.208100 *  0.523200 *  -2.86902    1.000000    
    288 O     s    0.968800 *  0.344600 *  0.533600 *  -2.86902    1.000000    
    289 O     s    0.537200 *  0.316900 *  0.484600 *  -2.86902    1.000000    
    290 O     s    0.755800 *  0.531000 *  0.465200 *  -2.86902    1.000000    
    291 O     s    0.093500 *  0.324600 *  0.602900 *  -2.86902    1.000000    
    292 O     s    0.965700 *  0.559400 *  0.514200 *  -2.86902    1.000000    
    293 O     s    0.667200 *  0.239800 *  0.332967 *  -2.86902    1.000000    
    294 O     s    0.878400 *  0.091300 *  0.693867 *  -2.86902    1.000000    
    295 O     s    0.100200 *  0.308300 *  0.689867 *  -2.86902    1.000000    
    296 O     s    0.624200 *  0.968800 *  0.700267 *  -2.86902    1.000000    
    297 O     s    0.220300 *  0.537200 *  0.651267 *  -2.86902    1.000000    
    298 O     s    0.224800 *  0.755800 *  0.631867 *  -2.86902    1.000000    
    299 O     s    0.768900 *  0.093500 *  0.769567 *  -2.86902    1.000000    
    300 O     s    0.406300 *  0.965700 *  0.680867 *  -2.86902    1.000000    
--------------------------------------------------------------------------------



********************************************************************************
*  General input information                                                   *
********************************************************************************

  Species output for all configurations : 

--------------------------------------------------------------------------------
  Species    Type    Atomic    Atomic    Charge       Radii (Angs)     Library
                     Number     Mass       (e)     Cova   Ionic  VDW   Symbol
--------------------------------------------------------------------------------
    O        Core        8      16.00   0.869020   0.730  0.000  1.360 O        
    O        Shell       8       0.00  -2.869020   0.730  0.000  0.000 O        
    Si       Core       14      28.09   4.000000   1.200  0.000  2.100 Si       
--------------------------------------------------------------------------------


  Lattice summation method               =    Ewald          (3-D)
                                         =    Parry          (2-D)
                                         =    Saunders et al (1-D)
  Accuracy factor for lattice sums       =   12.000


  Analytic derivatives to be used

  Time limit = Infinity

  Maximum range for interatomic potentials =    100000.000000 Angstroms

  General interatomic potentials :

--------------------------------------------------------------------------------
Atom  Types   Potential      Parameter       Value         Units   Cutoffs(Ang)
  1     2                                                            Min /  Max 
--------------------------------------------------------------------------------
Si   c O    s Buckingham    Buckingham A     1283.9070    eV        0.000 10.000
                            Buckingham rho  0.32052000    Ang       
                            Buckingham C     10.661580    eV*Ang^6  
--------------------------------------------------------------------------------
O    s O    s Buckingham    Buckingham A     22764.000    eV        0.000 12.000
                            Buckingham rho  0.14900000    Ang       
                            Buckingham C     27.879000    eV*Ang^6  
--------------------------------------------------------------------------------
O    c O    s Spring (c-s)  Spring k 2       74.920000    eV*Ang^-2 0.000  1.100
                            Spring k 4       0.0000000    eV*Ang^-4 
--------------------------------------------------------------------------------

  General Three-body potentials :

--------------------------------------------------------------------------------
  Atoms       Potential      Parameter       Value         Units   Cutoffs(Ang)
  1 / 2 / 3                                                          Min /  Max 
--------------------------------------------------------------------------------
Si    core    Harmonic      Three-body cnst  2.0972400    eV*rad^-2 0.000  1.900
O     shel                  Three-body angl  109.47000    degrees   0.000  1.900
O     shel                  Three-body k4    0.0000000    eV*rad^-4 0.000  3.500
                            Three-body k3    0.0000000    eV*rad^-3 
--------------------------------------------------------------------------------
Si    core    Harmonic      Three-body cnst  2.0972400    eV*rad^-2 0.000  1.900
O     shel                  Three-body angl  109.47000    degrees   0.000  1.900
õ(    shel                  Three-body k4    0.0000000    eV*rad^-4 0.000  3.500
                            Three-body k3    0.0000000    eV*rad^-3 
--------------------------------------------------------------------------------
Si    core    Harmonic      Three-body cnst  2.0972400    eV*rad^-2 0.000  1.900
õ(    shel                  Three-body angl  109.47000    degrees   0.000  1.900
õ(    shel                  Three-body k4    0.0000000    eV*rad^-4 0.000  3.500
                            Three-body k3    0.0000000    eV*rad^-3 
--------------------------------------------------------------------------------

********************************************************************************
*  Output for configuration   1 : ReferenceDataBase/STW                        *
********************************************************************************


  Components of energy : 

--------------------------------------------------------------------------------
  Interatomic potentials     =        1851.20620549 eV    
  Three-body potentials      =           0.10430675 eV    
  Monopole - monopole (real) =       -7302.03449626 eV    
  Monopole - monopole (recip)=       -2162.41606822 eV    
  Monopole - monopole (total)=       -9464.45056448 eV    
--------------------------------------------------------------------------------
  Total lattice energy       =       -7613.14005224 eV    
--------------------------------------------------------------------------------
  Total lattice energy       =         -734551.6375 kJ/(mole unit cells)
--------------------------------------------------------------------------------


  Number of variables =      360

  Maximum number of calculations  =           500
  Maximum Hessian update interval =            10
  Maximum step size               =   0.100000000
  Maximum parameter tolerance     =   0.000010000
  Maximum function  tolerance     =   0.000010000
  Maximum gradient  tolerance     =   0.001000000
  Maximum gradient  component     =   0.010000000

  Newton-Raphson optimiser to be used

  BFGS hessian update to be used

  Lower half triangular hessian to be used

  Minimiser to switch to RFO
  When gradient norm is less than     0.080000

  Switch max step size to       0.30000000 when gnorm is less than     0.005000

  Shell only optimisation

  Dumpfile to be written after every cycle

  Start of bulk optimisation :

  Cycle:      0 Energy:     -7613.140052  Gnorm:      8.899842  CPU:    1.073
  ** Hessian calculated **
  Cycle:      1 Energy:     -7704.928061  Gnorm:      1.673456  CPU:    2.606
  ** Hessian calculated **
  Cycle:      2 Energy:     -7707.435330  Gnorm:      0.835594  CPU:    4.341
  Cycle:      3 Energy:     -7708.059883  Gnorm:      0.416960  CPU:    5.358
  Cycle:      4 Energy:     -7708.215374  Gnorm:      0.208276  CPU:    6.369
  Cycle:      5 Energy:     -7708.254125  Gnorm:      0.104088  CPU:    7.384
  Cycle:      6 Energy:     -7708.263802  Gnorm:      0.052032  CPU:    8.404
  ** Hessian has required structure
  ** Hessian has required structure
  Cycle:      7 Energy:     -7708.266220  Gnorm:      0.026015  CPU:   10.279
  ** Hessian has required structure
  Cycle:      8 Energy:     -7708.266824  Gnorm:      0.013007  CPU:   11.386
  ** Hessian has required structure
  Cycle:      9 Energy:     -7708.266975  Gnorm:      0.006503  CPU:   12.476
  ** Hessian has required structure
  Cycle:     10 Energy:     -7708.267001  Gnorm:      0.004552  CPU:   13.228
  ** Hessian has required structure
  Cycle:     11 Energy:     -7708.267025  Gnorm:      0.000000  CPU:   14.321
  ** Hessian has required structure


  **** Optimisation achieved ****


  Final energy =   -7708.26702547 eV      
  Final Gnorm  =       0.00000006

  Components of energy : 

--------------------------------------------------------------------------------
  Interatomic potentials     =        2070.53843776 eV    
  Three-body potentials      =           1.78890156 eV    
  Monopole - monopole (real) =       -6717.51463225 eV    
  Monopole - monopole (recip)=       -3063.07973254 eV    
  Monopole - monopole (total)=       -9780.59436479 eV    
--------------------------------------------------------------------------------
  Total lattice energy       =       -7708.26702547 eV    
--------------------------------------------------------------------------------
  Total lattice energy       =         -743729.9363 kJ/(mole unit cells)
--------------------------------------------------------------------------------

  Final fractional coordinates of atoms :

--------------------------------------------------------------------------------
   No.  Atomic        x           y          z          Radius
        Label       (Frac)      (Frac)     (Frac)       (Angs) 
--------------------------------------------------------------------------------
     1  O     c     0.912800    0.000000    0.000000    0.000000
     2  O     c     0.332800    0.572600    0.333700    0.000000
     3  O     c     0.121600    0.212900    0.972800    0.000000
     4  O     c     0.934400    0.065600    0.916700    0.000000
     5  O     c     0.899800    0.208100    0.976800    0.000000
     6  O     c     0.640200    0.320100    0.083300    0.000000
     7  O     c     0.375800    0.344600    0.966400    0.000000
     8  O     c     0.779700    0.316900    0.015400    0.000000
     9  O     c     0.775200    0.531000    0.034800    0.000000
    10  O     c     0.231100    0.324600    0.897100    0.000000
    11  O     c     0.593700    0.559400    0.985800    0.000000
    12  O     c     0.583700    0.416300    0.916700    0.000000
    13  Si    c     0.691700    0.374800    0.033800    0.000000
    14  Si    c     0.531800    0.413800    0.966700    0.000000
    15  Si    c     0.299700    0.394200    0.850800    0.000000
    16  Si    c     0.243200    0.338000    0.950600    0.000000
    17  Si    c     0.967000    0.122100    0.966600    0.000000
    18  O     c     0.912800    0.912800    0.166667    0.000000
    19  O     c     0.760200    0.332800    0.500367    0.000000
    20  O     c     0.908700    0.121600    0.139467    0.000000
    21  O     c     0.868800    0.934400    0.083367    0.000000
    22  O     c     0.691700    0.899800    0.143467    0.000000
    23  O     c     0.320100    0.640200    0.249967    0.000000
    24  O     c     0.031200    0.375800    0.133067    0.000000
    25  O     c     0.462800    0.779700    0.182067    0.000000
    26  O     c     0.244200    0.775200    0.201467    0.000000
    27  O     c     0.906500    0.231100    0.063767    0.000000
    28  O     c     0.034300    0.593700    0.152467    0.000000
    29  O     c     0.167400    0.583700    0.083367    0.000000
    30  Si    c     0.316900    0.691700    0.200467    0.000000
    31  Si    c     0.118000    0.531800    0.133367    0.000000
    32  Si    c     0.905500    0.299700    0.017467    0.000000
    33  Si    c     0.905200    0.243200    0.117267    0.000000
    34  Si    c     0.844900    0.967000    0.133267    0.000000
    35  O     c     0.000000    0.912800    0.333333    0.000000
    36  O     c     0.427400    0.760200    0.667033    0.000000
    37  O     c     0.787100    0.908700    0.306133    0.000000
    38  O     c     0.934400    0.868800    0.250033    0.000000
    39  O     c     0.791900    0.691700    0.310133    0.000000
    40  O     c     0.679900    0.320100    0.416633    0.000000
    41  O     c     0.655400    0.031200    0.299733    0.000000
    42  O     c     0.683100    0.462800    0.348733    0.000000
    43  O     c     0.469000    0.244200    0.368133    0.000000
    44  O     c     0.675400    0.906500    0.230433    0.000000
    45  O     c     0.440600    0.034300    0.319133    0.000000
    46  O     c     0.583700    0.167400    0.250033    0.000000
    47  Si    c     0.625200    0.316900    0.367133    0.000000
    48  Si    c     0.586200    0.118000    0.300033    0.000000
    49  Si    c     0.605800    0.905500    0.184133    0.000000
    50  Si    c     0.662000    0.905200    0.283933    0.000000
    51  Si    c     0.877900    0.844900    0.299933    0.000000
    52  O     c     0.087200    0.000000    0.500000    0.000000
    53  O     c     0.667200    0.427400    0.833700    0.000000
    54  O     c     0.878400    0.787100    0.472800    0.000000
    55  O     c     0.065600    0.934400    0.416700    0.000000
    56  O     c     0.100200    0.791900    0.476800    0.000000
    57  O     c     0.359800    0.679900    0.583300    0.000000
    58  O     c     0.624200    0.655400    0.466400    0.000000
    59  O     c     0.220300    0.683100    0.515400    0.000000
    60  O     c     0.224800    0.469000    0.534800    0.000000
    61  O     c     0.768900    0.675400    0.397100    0.000000
    62  O     c     0.406300    0.440600    0.485800    0.000000
    63  O     c     0.416300    0.583700    0.416700    0.000000
    64  Si    c     0.308300    0.625200    0.533800    0.000000
    65  Si    c     0.468200    0.586200    0.466700    0.000000
    66  Si    c     0.700300    0.605800    0.350800    0.000000
    67  Si    c     0.756800    0.662000    0.450600    0.000000
    68  Si    c     0.033000    0.877900    0.466600    0.000000
    69  O     c     0.087200    0.087200    0.666667    0.000000
    70  O     c     0.239800    0.667200    0.000367    0.000000
    71  O     c     0.091300    0.878400    0.639467    0.000000
    72  O     c     0.131200    0.065600    0.583367    0.000000
    73  O     c     0.308300    0.100200    0.643467    0.000000
    74  O     c     0.679900    0.359800    0.749967    0.000000
    75  O     c     0.968800    0.624200    0.633067    0.000000
    76  O     c     0.537200    0.220300    0.682067    0.000000
    77  O     c     0.755800    0.224800    0.701467    0.000000
    78  O     c     0.093500    0.768900    0.563767    0.000000
    79  O     c     0.965700    0.406300    0.652467    0.000000
    80  O     c     0.832600    0.416300    0.583367    0.000000
    81  Si    c     0.683100    0.308300    0.700467    0.000000
    82  Si    c     0.882000    0.468200    0.633367    0.000000
    83  Si    c     0.094500    0.700300    0.517467    0.000000
    84  Si    c     0.094800    0.756800    0.617267    0.000000
    85  Si    c     0.155100    0.033000    0.633267    0.000000
    86  O     c     0.000000    0.087200    0.833333    0.000000
    87  O     c     0.572600    0.239800    0.167033    0.000000
    88  O     c     0.212900    0.091300    0.806133    0.000000
    89  O     c     0.065600    0.131200    0.750033    0.000000
    90  O     c     0.208100    0.308300    0.810133    0.000000
    91  O     c     0.320100    0.679900    0.916633    0.000000
    92  O     c     0.344600    0.968800    0.799733    0.000000
    93  O     c     0.316900    0.537200    0.848733    0.000000
    94  O     c     0.531000    0.755800    0.868133    0.000000
    95  O     c     0.324600    0.093500    0.730433    0.000000
    96  O     c     0.559400    0.965700    0.819133    0.000000
    97  O     c     0.416300    0.832600    0.750033    0.000000
    98  Si    c     0.374800    0.683100    0.867133    0.000000
    99  Si    c     0.413800    0.882000    0.800033    0.000000
   100  Si    c     0.394200    0.094500    0.684133    0.000000
   101  Si    c     0.338000    0.094800    0.783933    0.000000
   102  Si    c     0.122100    0.155100    0.799933    0.000000
   103  O     c     0.427400    0.667200    0.499633    0.000000
   104  O     c     0.787100    0.878400    0.860533    0.000000
   105  O     c     0.791900    0.100200    0.856533    0.000000
   106  O     c     0.655400    0.624200    0.866933    0.000000
   107  O     c     0.683100    0.220300    0.817933    0.000000
   108  O     c     0.469000    0.224800    0.798533    0.000000
   109  O     c     0.675400    0.768900    0.936233    0.000000
   110  O     c     0.440600    0.406300    0.847533    0.000000
   111  Si    c     0.625200    0.308300    0.799533    0.000000
   112  Si    c     0.586200    0.468200    0.866633    0.000000
   113  Si    c     0.605800    0.700300    0.982533    0.000000
   114  Si    c     0.662000    0.756800    0.882733    0.000000
   115  Si    c     0.877900    0.033000    0.866733    0.000000
   116  O     c     0.760200    0.427400    0.666300    0.000000
   117  O     c     0.908700    0.787100    0.027200    0.000000
   118  O     c     0.691700    0.791900    0.023200    0.000000
   119  O     c     0.031200    0.655400    0.033600    0.000000
   120  O     c     0.462800    0.683100    0.984600    0.000000
   121  O     c     0.244200    0.469000    0.965200    0.000000
   122  O     c     0.906500    0.675400    0.102900    0.000000
   123  O     c     0.034300    0.440600    0.014200    0.000000
   124  Si    c     0.316900    0.625200    0.966200    0.000000
   125  Si    c     0.118000    0.586200    0.033300    0.000000
   126  Si    c     0.905500    0.605800    0.149200    0.000000
   127  Si    c     0.905200    0.662000    0.049400    0.000000
   128  Si    c     0.844900    0.877900    0.033400    0.000000
   129  O     c     0.332800    0.760200    0.832967    0.000000
   130  O     c     0.121600    0.908700    0.193867    0.000000
   131  O     c     0.899800    0.691700    0.189867    0.000000
   132  O     c     0.375800    0.031200    0.200267    0.000000
   133  O     c     0.779700    0.462800    0.151267    0.000000
   134  O     c     0.775200    0.244200    0.131867    0.000000
   135  O     c     0.231100    0.906500    0.269567    0.000000
   136  O     c     0.593700    0.034300    0.180867    0.000000
   137  Si    c     0.691700    0.316900    0.132867    0.000000
   138  Si    c     0.531800    0.118000    0.199967    0.000000
   139  Si    c     0.299700    0.905500    0.315867    0.000000
   140  Si    c     0.243200    0.905200    0.216067    0.000000
   141  Si    c     0.967000    0.844900    0.200067    0.000000
   142  O     c     0.572600    0.332800    0.999633    0.000000
   143  O     c     0.212900    0.121600    0.360533    0.000000
   144  O     c     0.208100    0.899800    0.356533    0.000000
   145  O     c     0.344600    0.375800    0.366933    0.000000
   146  O     c     0.316900    0.779700    0.317933    0.000000
   147  O     c     0.531000    0.775200    0.298533    0.000000
   148  O     c     0.324600    0.231100    0.436233    0.000000
   149  O     c     0.559400    0.593700    0.347533    0.000000
   150  Si    c     0.374800    0.691700    0.299533    0.000000
   151  Si    c     0.413800    0.531800    0.366633    0.000000
   152  Si    c     0.394200    0.299700    0.482533    0.000000
   153  Si    c     0.338000    0.243200    0.382733    0.000000
   154  Si    c     0.122100    0.967000    0.366733    0.000000
   155  O     c     0.239800    0.572600    0.166300    0.000000
   156  O     c     0.091300    0.212900    0.527200    0.000000
   157  O     c     0.308300    0.208100    0.523200    0.000000
   158  O     c     0.968800    0.344600    0.533600    0.000000
   159  O     c     0.537200    0.316900    0.484600    0.000000
   160  O     c     0.755800    0.531000    0.465200    0.000000
   161  O     c     0.093500    0.324600    0.602900    0.000000
   162  O     c     0.965700    0.559400    0.514200    0.000000
   163  Si    c     0.683100    0.374800    0.466200    0.000000
   164  Si    c     0.882000    0.413800    0.533300    0.000000
   165  Si    c     0.094500    0.394200    0.649200    0.000000
   166  Si    c     0.094800    0.338000    0.549400    0.000000
   167  Si    c     0.155100    0.122100    0.533400    0.000000
   168  O     c     0.667200    0.239800    0.332967    0.000000
   169  O     c     0.878400    0.091300    0.693867    0.000000
   170  O     c     0.100200    0.308300    0.689867    0.000000
   171  O     c     0.624200    0.968800    0.700267    0.000000
   172  O     c     0.220300    0.537200    0.651267    0.000000
   173  O     c     0.224800    0.755800    0.631867    0.000000
   174  O     c     0.768900    0.093500    0.769567    0.000000
   175  O     c     0.406300    0.965700    0.680867    0.000000
   176  Si    c     0.308300    0.683100    0.632867    0.000000
   177  Si    c     0.468200    0.882000    0.699967    0.000000
   178  Si    c     0.700300    0.094500    0.815867    0.000000
   179  Si    c     0.756800    0.094800    0.716067    0.000000
   180  Si    c     0.033000    0.155100    0.700067    0.000000
   181  O     s     0.911707    0.999992    0.000005    0.000000
   182  O     s     0.346217    0.581195    0.333533    0.000000
   183  O     s     0.118466    0.217081    0.969711    0.000000
   184  O     s     0.931302    0.068713    0.916698    0.000000
   185  O     s     0.907694    0.209079    0.980232    0.000000
   186  O     s     0.650967    0.325488    0.083304    0.000000
   187  O     s     0.378316    0.351256    0.964746    0.000000
   188  O     s     0.783735    0.321124    0.017637    0.000000
   189  O     s     0.780673    0.528349    0.036291    0.000000
   190  O     s     0.239793    0.333532    0.897881    0.000000
   191  O     s     0.588053    0.559015    0.983295    0.000000
   192  O     s     0.578431    0.421562    0.916696    0.000000
   193  O     s     0.911715    0.911707    0.166672    0.000000
   194  O     s     0.765022    0.346217    0.500199    0.000000
   195  O     s     0.901385    0.118466    0.136377    0.000000
   196  O     s     0.862589    0.931302    0.083365    0.000000
   197  O     s     0.698614    0.907694    0.146899    0.000000
   198  O     s     0.325479    0.650967    0.249971    0.000000
   199  O     s     0.027060    0.378316    0.131412    0.000000
   200  O     s     0.462612    0.783735    0.184304    0.000000
   201  O     s     0.252324    0.780673    0.202957    0.000000
   202  O     s     0.906261    0.239793    0.064547    0.000000
   203  O     s     0.029039    0.588053    0.149962    0.000000
   204  O     s     0.156869    0.578431    0.083363    0.000000
   205  O     s     0.000008    0.911715    0.333338    0.000000
   206  O     s     0.418805    0.765022    0.666866    0.000000
   207  O     s     0.782919    0.901385    0.303044    0.000000
   208  O     s     0.931287    0.862589    0.250032    0.000000
   209  O     s     0.790921    0.698614    0.313565    0.000000
   210  O     s     0.674512    0.325479    0.416637    0.000000
   211  O     s     0.648744    0.027060    0.298079    0.000000
   212  O     s     0.678876    0.462612    0.350971    0.000000
   213  O     s     0.471651    0.252324    0.369624    0.000000
   214  O     s     0.666468    0.906261    0.231214    0.000000
   215  O     s     0.440986    0.029039    0.316629    0.000000
   216  O     s     0.578438    0.156869    0.250029    0.000000
   217  O     s     0.088293    0.000008    0.500005    0.000000
   218  O     s     0.653783    0.418805    0.833533    0.000000
   219  O     s     0.881534    0.782919    0.469711    0.000000
   220  O     s     0.068698    0.931287    0.416698    0.000000
   221  O     s     0.092306    0.790921    0.480232    0.000000
   222  O     s     0.349033    0.674512    0.583304    0.000000
   223  O     s     0.621684    0.648744    0.464746    0.000000
   224  O     s     0.216265    0.678876    0.517637    0.000000
   225  O     s     0.219327    0.471651    0.536291    0.000000
   226  O     s     0.760207    0.666468    0.397881    0.000000
   227  O     s     0.411947    0.440985    0.483295    0.000000
   228  O     s     0.421569    0.578438    0.416696    0.000000
   229  O     s     0.088285    0.088293    0.666672    0.000000
   230  O     s     0.234978    0.653783    0.000199    0.000000
   231  O     s     0.098615    0.881534    0.636377    0.000000
   232  O     s     0.137411    0.068698    0.583365    0.000000
   233  O     s     0.301386    0.092306    0.646899    0.000000
   234  O     s     0.674521    0.349033    0.749971    0.000000
   235  O     s     0.972940    0.621684    0.631412    0.000000
   236  O     s     0.537388    0.216265    0.684304    0.000000
   237  O     s     0.747676    0.219327    0.702957    0.000000
   238  O     s     0.093739    0.760207    0.564547    0.000000
   239  O     s     0.970961    0.411947    0.649962    0.000000
   240  O     s     0.843131    0.421569    0.583363    0.000000
   241  O     s     0.999992    0.088285    0.833338    0.000000
   242  O     s     0.581195    0.234978    0.166866    0.000000
   243  O     s     0.217081    0.098615    0.803044    0.000000
   244  O     s     0.068713    0.137411    0.750032    0.000000
   245  O     s     0.209079    0.301386    0.813565    0.000000
   246  O     s     0.325488    0.674521    0.916637    0.000000
   247  O     s     0.351256    0.972940    0.798079    0.000000
   248  O     s     0.321124    0.537388    0.850971    0.000000
   249  O     s     0.528349    0.747676    0.869624    0.000000
   250  O     s     0.333532    0.093739    0.731214    0.000000
   251  O     s     0.559014    0.970961    0.816629    0.000000
   252  O     s     0.421562    0.843131    0.750029    0.000000
   253  O     s     0.418806    0.653783    0.499801    0.000000
   254  O     s     0.782927    0.881542    0.863624    0.000000
   255  O     s     0.790928    0.092307    0.853104    0.000000
   256  O     s     0.648743    0.621672    0.868588    0.000000
   257  O     s     0.678878    0.216278    0.815694    0.000000
   258  O     s     0.471668    0.219340    0.797043    0.000000
   259  O     s     0.666468    0.760207    0.935453    0.000000
   260  O     s     0.441003    0.411948    0.850041    0.000000
   261  O     s     0.765024    0.418806    0.666468    0.000000
   262  O     s     0.901385    0.782927    0.030291    0.000000
   263  O     s     0.698621    0.790928    0.019770    0.000000
   264  O     s     0.027071    0.648743    0.035255    0.000000
   265  O     s     0.462599    0.678878    0.982361    0.000000
   266  O     s     0.252327    0.471668    0.963709    0.000000
   267  O     s     0.906261    0.666468    0.102120    0.000000
   268  O     s     0.029054    0.441003    0.016707    0.000000
   269  O     s     0.346217    0.765024    0.833134    0.000000
   270  O     s     0.118458    0.901385    0.196957    0.000000
   271  O     s     0.907693    0.698621    0.186437    0.000000
   272  O     s     0.378328    0.027071    0.201921    0.000000
   273  O     s     0.783722    0.462599    0.149027    0.000000
   274  O     s     0.780660    0.252327    0.130376    0.000000
   275  O     s     0.239793    0.906261    0.268786    0.000000
   276  O     s     0.588052    0.029054    0.183374    0.000000
   277  O     s     0.581194    0.346217    0.999801    0.000000
   278  O     s     0.217073    0.118458    0.363624    0.000000
   279  O     s     0.209072    0.907693    0.353104    0.000000
   280  O     s     0.351257    0.378328    0.368588    0.000000
   281  O     s     0.321122    0.783722    0.315694    0.000000
   282  O     s     0.528332    0.780660    0.297043    0.000000
   283  O     s     0.333532    0.239793    0.435453    0.000000
   284  O     s     0.558997    0.588052    0.350040    0.000000
   285  O     s     0.234976    0.581194    0.166468    0.000000
   286  O     s     0.098615    0.217073    0.530291    0.000000
   287  O     s     0.301379    0.209072    0.519770    0.000000
   288  O     s     0.972929    0.351257    0.535255    0.000000
   289  O     s     0.537401    0.321122    0.482361    0.000000
   290  O     s     0.747673    0.528332    0.463709    0.000000
   291  O     s     0.093739    0.333532    0.602120    0.000000
   292  O     s     0.970946    0.558997    0.516707    0.000000
   293  O     s     0.653783    0.234976    0.333134    0.000000
   294  O     s     0.881542    0.098615    0.696957    0.000000
   295  O     s     0.092307    0.301379    0.686437    0.000000
   296  O     s     0.621672    0.972929    0.701921    0.000000
   297  O     s     0.216278    0.537401    0.649027    0.000000
   298  O     s     0.219340    0.747673    0.630376    0.000000
   299  O     s     0.760207    0.093739    0.768786    0.000000
   300  O     s     0.411948    0.970946    0.683374    0.000000
--------------------------------------------------------------------------------

  Final internal derivatives :

--------------------------------------------------------------------------------
   No.  Atomic          a             b             c           Radius
        Label          (eV)          (eV)          (eV)        (eV/Angs)
--------------------------------------------------------------------------------
      1 O     c       0.000000      0.000000      0.000000      0.000000
      2 O     c       0.000000      0.000000      0.000000      0.000000
      3 O     c       0.000000      0.000000      0.000000      0.000000
      4 O     c       0.000000      0.000000      0.000000      0.000000
      5 O     c       0.000000      0.000000      0.000000      0.000000
      6 O     c       0.000000      0.000000      0.000000      0.000000
      7 O     c       0.000000      0.000000      0.000000      0.000000
      8 O     c       0.000000      0.000000      0.000000      0.000000
      9 O     c       0.000000      0.000000      0.000000      0.000000
     10 O     c       0.000000      0.000000      0.000000      0.000000
     11 O     c       0.000000      0.000000      0.000000      0.000000
     12 O     c       0.000000      0.000000      0.000000      0.000000
     13 Si    c       0.000000      0.000000      0.000000      0.000000
     14 Si    c       0.000000      0.000000      0.000000      0.000000
     15 Si    c       0.000000      0.000000      0.000000      0.000000
     16 Si    c       0.000000      0.000000      0.000000      0.000000
     17 Si    c       0.000000      0.000000      0.000000      0.000000
     18 O     c       0.000000      0.000000      0.000000      0.000000
     19 O     c       0.000000      0.000000      0.000000      0.000000
     20 O     c       0.000000      0.000000      0.000000      0.000000
     21 O     c       0.000000      0.000000      0.000000      0.000000
     22 O     c       0.000000      0.000000      0.000000      0.000000
     23 O     c       0.000000      0.000000      0.000000      0.000000
     24 O     c       0.000000      0.000000      0.000000      0.000000
     25 O     c       0.000000      0.000000      0.000000      0.000000
     26 O     c       0.000000      0.000000      0.000000      0.000000
     27 O     c       0.000000      0.000000      0.000000      0.000000
     28 O     c       0.000000      0.000000      0.000000      0.000000
     29 O     c       0.000000      0.000000      0.000000      0.000000
     30 Si    c       0.000000      0.000000      0.000000      0.000000
     31 Si    c       0.000000      0.000000      0.000000      0.000000
     32 Si    c       0.000000      0.000000      0.000000      0.000000
     33 Si    c       0.000000      0.000000      0.000000      0.000000
     34 Si    c       0.000000      0.000000      0.000000      0.000000
     35 O     c       0.000000      0.000000      0.000000      0.000000
     36 O     c       0.000000      0.000000      0.000000      0.000000
     37 O     c       0.000000      0.000000      0.000000      0.000000
     38 O     c       0.000000      0.000000      0.000000      0.000000
     39 O     c       0.000000      0.000000      0.000000      0.000000
     40 O     c       0.000000      0.000000      0.000000      0.000000
     41 O     c       0.000000      0.000000      0.000000      0.000000
     42 O     c       0.000000      0.000000      0.000000      0.000000
     43 O     c       0.000000      0.000000      0.000000      0.000000
     44 O     c       0.000000      0.000000      0.000000      0.000000
     45 O     c       0.000000      0.000000      0.000000      0.000000
     46 O     c       0.000000      0.000000      0.000000      0.000000
     47 Si    c       0.000000      0.000000      0.000000      0.000000
     48 Si    c       0.000000      0.000000      0.000000      0.000000
     49 Si    c       0.000000      0.000000      0.000000      0.000000
     50 Si    c       0.000000      0.000000      0.000000      0.000000
     51 Si    c       0.000000      0.000000      0.000000      0.000000
     52 O     c       0.000000      0.000000      0.000000      0.000000
     53 O     c       0.000000      0.000000      0.000000      0.000000
     54 O     c       0.000000      0.000000      0.000000      0.000000
     55 O     c       0.000000      0.000000      0.000000      0.000000
     56 O     c       0.000000      0.000000      0.000000      0.000000
     57 O     c       0.000000      0.000000      0.000000      0.000000
     58 O     c       0.000000      0.000000      0.000000      0.000000
     59 O     c       0.000000      0.000000      0.000000      0.000000
     60 O     c       0.000000      0.000000      0.000000      0.000000
     61 O     c       0.000000      0.000000      0.000000      0.000000
     62 O     c       0.000000      0.000000      0.000000      0.000000
     63 O     c       0.000000      0.000000      0.000000      0.000000
     64 Si    c       0.000000      0.000000      0.000000      0.000000
     65 Si    c       0.000000      0.000000      0.000000      0.000000
     66 Si    c       0.000000      0.000000      0.000000      0.000000
     67 Si    c       0.000000      0.000000      0.000000      0.000000
     68 Si    c       0.000000      0.000000      0.000000      0.000000
     69 O     c       0.000000      0.000000      0.000000      0.000000
     70 O     c       0.000000      0.000000      0.000000      0.000000
     71 O     c       0.000000      0.000000      0.000000      0.000000
     72 O     c       0.000000      0.000000      0.000000      0.000000
     73 O     c       0.000000      0.000000      0.000000      0.000000
     74 O     c       0.000000      0.000000      0.000000      0.000000
     75 O     c       0.000000      0.000000      0.000000      0.000000
     76 O     c       0.000000      0.000000      0.000000      0.000000
     77 O     c       0.000000      0.000000      0.000000      0.000000
     78 O     c       0.000000      0.000000      0.000000      0.000000
     79 O     c       0.000000      0.000000      0.000000      0.000000
     80 O     c       0.000000      0.000000      0.000000      0.000000
     81 Si    c       0.000000      0.000000      0.000000      0.000000
     82 Si    c       0.000000      0.000000      0.000000      0.000000
     83 Si    c       0.000000      0.000000      0.000000      0.000000
     84 Si    c       0.000000      0.000000      0.000000      0.000000
     85 Si    c       0.000000      0.000000      0.000000      0.000000
     86 O     c       0.000000      0.000000      0.000000      0.000000
     87 O     c       0.000000      0.000000      0.000000      0.000000
     88 O     c       0.000000      0.000000      0.000000      0.000000
     89 O     c       0.000000      0.000000      0.000000      0.000000
     90 O     c       0.000000      0.000000      0.000000      0.000000
     91 O     c       0.000000      0.000000      0.000000      0.000000
     92 O     c       0.000000      0.000000      0.000000      0.000000
     93 O     c       0.000000      0.000000      0.000000      0.000000
     94 O     c       0.000000      0.000000      0.000000      0.000000
     95 O     c       0.000000      0.000000      0.000000      0.000000
     96 O     c       0.000000      0.000000      0.000000      0.000000
     97 O     c       0.000000      0.000000      0.000000      0.000000
     98 Si    c       0.000000      0.000000      0.000000      0.000000
     99 Si    c       0.000000      0.000000      0.000000      0.000000
    100 Si    c       0.000000      0.000000      0.000000      0.000000
    101 Si    c       0.000000      0.000000      0.000000      0.000000
    102 Si    c       0.000000      0.000000      0.000000      0.000000
    103 O     c       0.000000      0.000000      0.000000      0.000000
    104 O     c       0.000000      0.000000      0.000000      0.000000
    105 O     c       0.000000      0.000000      0.000000      0.000000
    106 O     c       0.000000      0.000000      0.000000      0.000000
    107 O     c       0.000000      0.000000      0.000000      0.000000
    108 O     c       0.000000      0.000000      0.000000      0.000000
    109 O     c       0.000000      0.000000      0.000000      0.000000
    110 O     c       0.000000      0.000000      0.000000      0.000000
    111 Si    c       0.000000      0.000000      0.000000      0.000000
    112 Si    c       0.000000      0.000000      0.000000      0.000000
    113 Si    c       0.000000      0.000000      0.000000      0.000000
    114 Si    c       0.000000      0.000000      0.000000      0.000000
    115 Si    c       0.000000      0.000000      0.000000      0.000000
    116 O     c       0.000000      0.000000      0.000000      0.000000
    117 O     c       0.000000      0.000000      0.000000      0.000000
    118 O     c       0.000000      0.000000      0.000000      0.000000
    119 O     c       0.000000      0.000000      0.000000      0.000000
    120 O     c       0.000000      0.000000      0.000000      0.000000
    121 O     c       0.000000      0.000000      0.000000      0.000000
    122 O     c       0.000000      0.000000      0.000000      0.000000
    123 O     c       0.000000      0.000000      0.000000      0.000000
    124 Si    c       0.000000      0.000000      0.000000      0.000000
    125 Si    c       0.000000      0.000000      0.000000      0.000000
    126 Si    c       0.000000      0.000000      0.000000      0.000000
    127 Si    c       0.000000      0.000000      0.000000      0.000000
    128 Si    c       0.000000      0.000000      0.000000      0.000000
    129 O     c       0.000000      0.000000      0.000000      0.000000
    130 O     c       0.000000      0.000000      0.000000      0.000000
    131 O     c       0.000000      0.000000      0.000000      0.000000
    132 O     c       0.000000      0.000000      0.000000      0.000000
    133 O     c       0.000000      0.000000      0.000000      0.000000
    134 O     c       0.000000      0.000000      0.000000      0.000000
    135 O     c       0.000000      0.000000      0.000000      0.000000
    136 O     c       0.000000      0.000000      0.000000      0.000000
    137 Si    c       0.000000      0.000000      0.000000      0.000000
    138 Si    c       0.000000      0.000000      0.000000      0.000000
    139 Si    c       0.000000      0.000000      0.000000      0.000000
    140 Si    c       0.000000      0.000000      0.000000      0.000000
    141 Si    c       0.000000      0.000000      0.000000      0.000000
    142 O     c       0.000000      0.000000      0.000000      0.000000
    143 O     c       0.000000      0.000000      0.000000      0.000000
    144 O     c       0.000000      0.000000      0.000000      0.000000
    145 O     c       0.000000      0.000000      0.000000      0.000000
    146 O     c       0.000000      0.000000      0.000000      0.000000
    147 O     c       0.000000      0.000000      0.000000      0.000000
    148 O     c       0.000000      0.000000      0.000000      0.000000
    149 O     c       0.000000      0.000000      0.000000      0.000000
    150 Si    c       0.000000      0.000000      0.000000      0.000000
    151 Si    c       0.000000      0.000000      0.000000      0.000000
    152 Si    c       0.000000      0.000000      0.000000      0.000000
    153 Si    c       0.000000      0.000000      0.000000      0.000000
    154 Si    c       0.000000      0.000000      0.000000      0.000000
    155 O     c       0.000000      0.000000      0.000000      0.000000
    156 O     c       0.000000      0.000000      0.000000      0.000000
    157 O     c       0.000000      0.000000      0.000000      0.000000
    158 O     c       0.000000      0.000000      0.000000      0.000000
    159 O     c       0.000000      0.000000      0.000000      0.000000
    160 O     c       0.000000      0.000000      0.000000      0.000000
    161 O     c       0.000000      0.000000      0.000000      0.000000
    162 O     c       0.000000      0.000000      0.000000      0.000000
    163 Si    c       0.000000      0.000000      0.000000      0.000000
    164 Si    c       0.000000      0.000000      0.000000      0.000000
    165 Si    c       0.000000      0.000000      0.000000      0.000000
    166 Si    c       0.000000      0.000000      0.000000      0.000000
    167 Si    c       0.000000      0.000000      0.000000      0.000000
    168 O     c       0.000000      0.000000      0.000000      0.000000
    169 O     c       0.000000      0.000000      0.000000      0.000000
    170 O     c       0.000000      0.000000      0.000000      0.000000
    171 O     c       0.000000      0.000000      0.000000      0.000000
    172 O     c       0.000000      0.000000      0.000000      0.000000
    173 O     c       0.000000      0.000000      0.000000      0.000000
    174 O     c       0.000000      0.000000      0.000000      0.000000
    175 O     c       0.000000      0.000000      0.000000      0.000000
    176 Si    c       0.000000      0.000000      0.000000      0.000000
    177 Si    c       0.000000      0.000000      0.000000      0.000000
    178 Si    c       0.000000      0.000000      0.000000      0.000000
    179 Si    c       0.000000      0.000000      0.000000      0.000000
    180 Si    c       0.000000      0.000000      0.000000      0.000000
    181 O     s       0.000001     -0.000000      0.000000      0.000000
    182 O     s      -0.000001     -0.000000      0.000000      0.000000
    183 O     s       0.000001     -0.000001      0.000003      0.000000
    184 O     s       0.000001     -0.000001      0.000000      0.000000
    185 O     s      -0.000001      0.000001     -0.000003      0.000000
    186 O     s      -0.000001     -0.000000     -0.000000      0.000000
    187 O     s       0.000000     -0.000001      0.000002      0.000000
    188 O     s      -0.000000     -0.000000     -0.000002      0.000000
    189 O     s      -0.000001      0.000001     -0.000001      0.000000
    190 O     s      -0.000000     -0.000001     -0.000000      0.000000
    191 O     s       0.000001     -0.000000      0.000002      0.000000
    192 O     s       0.000001     -0.000001     -0.000000      0.000000
    193 O     s       0.000000      0.000000     -0.000000      0.000000
    194 O     s       0.000000     -0.000002      0.000000      0.000000
    195 O     s       0.000001     -0.000000      0.000003      0.000000
    196 O     s       0.000001      0.000000     -0.000000      0.000000
    197 O     s      -0.000001     -0.000001     -0.000003      0.000000
    198 O     s       0.000000     -0.000001     -0.000000      0.000000
    199 O     s       0.000001     -0.000001      0.000001      0.000000
    200 O     s       0.000000     -0.000001     -0.000002      0.000000
    201 O     s      -0.000001     -0.000000     -0.000001      0.000000
    202 O     s       0.000001     -0.000001     -0.000000      0.000000
    203 O     s       0.000000      0.000000      0.000002      0.000000
    204 O     s       0.000001      0.000000     -0.000000      0.000000
    205 O     s      -0.000000      0.000001     -0.000000      0.000000
    206 O     s       0.000002     -0.000001      0.000000      0.000000
    207 O     s       0.000000      0.000001      0.000003      0.000000
    208 O     s       0.000000      0.000001     -0.000000      0.000000
    209 O     s       0.000001     -0.000001     -0.000003      0.000000
    210 O     s       0.000001     -0.000001     -0.000000      0.000000
    211 O     s       0.000001      0.000000      0.000001      0.000000
    212 O     s       0.000001     -0.000000     -0.000002      0.000000
    213 O     s       0.000000     -0.000001     -0.000001      0.000000
    214 O     s       0.000001     -0.000000     -0.000000      0.000000
    215 O     s      -0.000000      0.000001      0.000002      0.000000
    216 O     s      -0.000000      0.000001      0.000000      0.000000
    217 O     s      -0.000001      0.000000     -0.000000      0.000000
    218 O     s       0.000001      0.000000      0.000000      0.000000
    219 O     s      -0.000001      0.000001      0.000003      0.000000
    220 O     s      -0.000001      0.000001      0.000000      0.000000
    221 O     s       0.000001     -0.000001     -0.000003      0.000000
    222 O     s       0.000001      0.000000     -0.000000      0.000000
    223 O     s      -0.000000      0.000001      0.000002      0.000000
    224 O     s       0.000000      0.000000     -0.000002      0.000000
    225 O     s       0.000001     -0.000001     -0.000001      0.000000
    226 O     s       0.000000      0.000001     -0.000000      0.000000
    227 O     s      -0.000001      0.000000      0.000002      0.000000
    228 O     s      -0.000001      0.000001     -0.000000      0.000000
    229 O     s      -0.000000     -0.000000     -0.000000      0.000000
    230 O     s      -0.000000      0.000002      0.000000      0.000000
    231 O     s      -0.000001      0.000000      0.000003      0.000000
    232 O     s      -0.000001      0.000000      0.000000      0.000000
    233 O     s       0.000001      0.000001     -0.000003      0.000000
    234 O     s      -0.000000      0.000001      0.000000      0.000000
    235 O     s      -0.000001      0.000001      0.000002      0.000000
    236 O     s      -0.000000      0.000001     -0.000002      0.000000
    237 O     s       0.000001      0.000000     -0.000001      0.000000
    238 O     s      -0.000001      0.000001     -0.000000      0.000000
    239 O     s      -0.000000     -0.000000      0.000002      0.000000
    240 O     s      -0.000001      0.000000     -0.000000      0.000000
    241 O     s       0.000000     -0.000001     -0.000000      0.000000
    242 O     s      -0.000002      0.000001      0.000000      0.000000
    243 O     s      -0.000000     -0.000001      0.000003      0.000000
    244 O     s      -0.000000     -0.000001      0.000000      0.000000
    245 O     s      -0.000001      0.000001     -0.000003      0.000000
    246 O     s      -0.000001      0.000001     -0.000000      0.000000
    247 O     s      -0.000001     -0.000000      0.000002      0.000000
    248 O     s      -0.000001      0.000000     -0.000002      0.000000
    249 O     s      -0.000000      0.000001     -0.000001      0.000000
    250 O     s      -0.000001      0.000000     -0.000000      0.000000
    251 O     s       0.000000     -0.000001      0.000002      0.000000
    252 O     s       0.000000     -0.000001     -0.000000      0.000000
    253 O     s       0.000000      0.000001     -0.000000      0.000000
    254 O     s       0.000001     -0.000001     -0.000003      0.000000
    255 O     s      -0.000001      0.000001      0.000003      0.000000
    256 O     s       0.000001     -0.000000     -0.000002      0.000000
    257 O     s       0.000000      0.000000      0.000002      0.000000
    258 O     s      -0.000001      0.000001      0.000001      0.000000
    259 O     s       0.000001      0.000000      0.000000      0.000000
    260 O     s       0.000000     -0.000001     -0.000002      0.000000
    261 O     s      -0.000001      0.000002     -0.000000      0.000000
    262 O     s       0.000001      0.000000     -0.000003      0.000000
    263 O     s      -0.000001      0.000001      0.000003      0.000000
    264 O     s       0.000000      0.000001     -0.000002      0.000000
    265 O     s      -0.000000      0.000001      0.000002      0.000000
    266 O     s      -0.000001      0.000000      0.000001      0.000000
    267 O     s      -0.000000      0.000001      0.000000      0.000000
    268 O     s       0.000001     -0.000000     -0.000002      0.000000
    269 O     s      -0.000002      0.000000     -0.000000      0.000000
    270 O     s      -0.000000      0.000001     -0.000003      0.000000
    271 O     s      -0.000001     -0.000001      0.000003      0.000000
    272 O     s      -0.000001      0.000001     -0.000002      0.000000
    273 O     s      -0.000001      0.000000      0.000002      0.000000
    274 O     s      -0.000000     -0.000001      0.000001      0.000000
    275 O     s      -0.000001      0.000001      0.000000      0.000000
    276 O     s       0.000000      0.000000     -0.000002      0.000000
    277 O     s      -0.000000     -0.000001     -0.000000      0.000000
    278 O     s      -0.000001      0.000001     -0.000003      0.000000
    279 O     s       0.000001     -0.000001      0.000003      0.000000
    280 O     s      -0.000001      0.000000     -0.000002      0.000000
    281 O     s      -0.000000     -0.000000      0.000002      0.000000
    282 O     s       0.000001     -0.000001      0.000001      0.000000
    283 O     s      -0.000001     -0.000000      0.000000      0.000000
    284 O     s      -0.000000      0.000001     -0.000002      0.000000
    285 O     s       0.000001     -0.000002     -0.000000      0.000000
    286 O     s      -0.000001     -0.000000     -0.000003      0.000000
    287 O     s       0.000001     -0.000001      0.000003      0.000000
    288 O     s      -0.000000     -0.000001     -0.000002      0.000000
    289 O     s       0.000000     -0.000001      0.000002      0.000000
    290 O     s       0.000001     -0.000000      0.000001      0.000000
    291 O     s       0.000000     -0.000001      0.000000      0.000000
    292 O     s      -0.000001      0.000000     -0.000002      0.000000
    293 O     s       0.000002     -0.000000     -0.000000      0.000000
    294 O     s       0.000000     -0.000001     -0.000003      0.000000
    295 O     s       0.000001      0.000001      0.000003      0.000000
    296 O     s       0.000001     -0.000001     -0.000002      0.000000
    297 O     s       0.000001     -0.000000      0.000002      0.000000
    298 O     s       0.000000      0.000001      0.000001      0.000000
    299 O     s       0.000001     -0.000001      0.000000      0.000000
    300 O     s      -0.000000     -0.000000     -0.000002      0.000000
--------------------------------------------------------------------------------
  Maximum abs         0.000002      0.000002      0.000003      0.000000
--------------------------------------------------------------------------------


  Time to end of optimisation =      15.4260 seconds


  Peak dynamic memory used =       6.45 MB 


  Timing analysis for GULP :

--------------------------------------------------------------------------------
  Task / Subroutine                                          Time (Seconds)
--------------------------------------------------------------------------------
  Calculation of reciprocal space energy and derivatives          3.2528
  Calculation of real space energy and derivatives                8.9080
  Calculation of three-body energy and derivatives                2.7064
  Calculation and manipulation of Hessian matrix                  0.5029
  Calculation of matrix inversion                                 0.0144
  Symmetry generation of equivalent positions                     0.0002
--------------------------------------------------------------------------------
  Total CPU time                                                 15.4260
--------------------------------------------------------------------------------


  Dump file written as ReferenceDataBase/STW.grs
  CIF file written as ReferenceDataBase/STW_opt.cif


  Job Finished at 00:52.32  6th February   2024                               

