********************************************************************************
*                       GENERAL UTILITY LATTICE PROGRAM                        *
*                                 Julian Gale                                  *
*                       Curtin Institute for Computation                       *
*                    School of Molecular and Life Sciences                     *
*                    Curtin University, Western Australia                      *
********************************************************************************
* Version = 6.1.2 * Last modified =   3rd November 2022                        *
********************************************************************************
*  optimise     - perform optimisation run                                     *
*  conv         - constant volume calculation                                  *
*  shell        - only shells and radii to be optimised                        *
*  nosymmetry   - turn off symmetry after initial structure generation         *
********************************************************************************

  Job Started  at 10:18.51 26th June       2025                               

  Number of CPUs =     1


  Total number of configurations input =      1

********************************************************************************
*  Input for Configuration =   1 : ReferenceDataBase/THO_posit_00.00GPa        *
********************************************************************************

  Formula = Si40O80                                                     

  Number of irreducible atoms/shells =     200


  Total number atoms/shells =     200

  Dimensionality = 3               :  Bulk   



  Cartesian lattice vectors (Angstroms) :

       12.592300    0.000000    0.000000
       -0.000044   12.699600    0.000000
       -0.000288   -0.003475   12.683100

  Cell parameters (Angstroms/Degrees):

  a =      12.5923    alpha =  90.0157
  b =      12.6996    beta  =  90.0013
  c =      12.6831    gamma =  90.0002

  Initial cell volume =        2028.245421 Angs**3

  Temperature of configuration =   0.00     K 

  Pressure of configuration =         0.000 GPa 

  Fractional coordinates of asymmetric unit :

--------------------------------------------------------------------------------
   No.  Atomic       x           y          z         Charge      Occupancy
        Label      (Frac)      (Frac)     (Frac)        (e)         (Frac)  
--------------------------------------------------------------------------------
      1 Si    c    0.115211    0.686568    0.500186     4.00000    1.000000    
      2 Si    c    0.115271    0.295816    0.500243     4.00000    1.000000    
      3 Si    c    0.308891    0.375056    0.380674     4.00000    1.000000    
      4 Si    c    0.308870    0.607314    0.380586     4.00000    1.000000    
      5 Si    c    0.886090    0.686575    0.999241     4.00000    1.000000    
      6 Si    c    0.886153    0.295832    0.999278     4.00000    1.000000    
      7 Si    c    0.692481    0.375091    0.118893     4.00000    1.000000    
      8 Si    c    0.692452    0.607342    0.118782     4.00000    1.000000    
      9 Si    c    0.615213    0.795830    0.999247     4.00000    1.000000    
     10 Si    c    0.615265    0.186563    0.999251     4.00000    1.000000    
     11 Si    c    0.808905    0.107342    0.118804     4.00000    1.000000    
     12 Si    c    0.808867    0.875086    0.118882     4.00000    1.000000    
     13 Si    c    0.386095    0.795825    0.500225     4.00000    1.000000    
     14 Si    c    0.386143    0.186571    0.500216     4.00000    1.000000    
     15 Si    c    0.192491    0.107310    0.380605     4.00000    1.000000    
     16 Si    c    0.192451    0.875059    0.380654     4.00000    1.000000    
     17 Si    c    0.886155    0.295834    0.499279     4.00000    1.000000    
     18 Si    c    0.886087    0.686576    0.499235     4.00000    1.000000    
     19 Si    c    0.692454    0.607341    0.618780     4.00000    1.000000    
     20 Si    c    0.692482    0.375090    0.618896     4.00000    1.000000    
     21 Si    c    0.115269    0.295817    0.000241     4.00000    1.000000    
     22 Si    c    0.115213    0.686570    0.000191     4.00000    1.000000    
     23 Si    c    0.308869    0.607314    0.880588     4.00000    1.000000    
     24 Si    c    0.308889    0.375056    0.880671     4.00000    1.000000    
     25 Si    c    0.386141    0.186573    0.000217     4.00000    1.000000    
     26 Si    c    0.386097    0.795827    0.000219     4.00000    1.000000    
     27 Si    c    0.192449    0.875059    0.880651     4.00000    1.000000    
     28 Si    c    0.192490    0.107309    0.880608     4.00000    1.000000    
     29 Si    c    0.615267    0.186563    0.499250     4.00000    1.000000    
     30 Si    c    0.615211    0.795831    0.499253     4.00000    1.000000    
     31 Si    c    0.808869    0.875086    0.618883     4.00000    1.000000    
     32 Si    c    0.808907    0.107341    0.618801     4.00000    1.000000    
     33 Si    c    0.250685    0.241146    0.690410     4.00000    1.000000    
     34 Si    c    0.750674    0.241272    0.809083     4.00000    1.000000    
     35 Si    c    0.750670    0.741262    0.309062     4.00000    1.000000    
     36 Si    c    0.250681    0.741171    0.190387     4.00000    1.000000    
     37 Si    c    0.250674    0.741168    0.690387     4.00000    1.000000    
     38 Si    c    0.750677    0.741259    0.809062     4.00000    1.000000    
     39 Si    c    0.750675    0.241275    0.309083     4.00000    1.000000    
     40 Si    c    0.250683    0.241149    0.190410     4.00000    1.000000    
     41 O     c    0.144910    0.257104    0.618728     0.86902    1.000000    
     42 O     c    0.144892    0.725211    0.618706     0.86902    1.000000    
     43 O     c    0.268198    0.345504    0.762739     0.86902    1.000000    
     44 O     c    0.268239    0.636798    0.762631     0.86902    1.000000    
     45 O     c    0.000647    0.627977    0.499694     0.86902    1.000000    
     46 O     c    0.207144    0.606234    0.460272     0.86902    1.000000    
     47 O     c    0.207221    0.376167    0.460435     0.86902    1.000000    
     48 O     c    0.106361    0.788157    0.420954     0.86902    1.000000    
     49 O     c    0.106434    0.194266    0.420907     0.86902    1.000000    
     50 O     c    0.362338    0.491190    0.380261     0.86902    1.000000    
     51 O     c    0.856468    0.257233    0.880745     0.86902    1.000000    
     52 O     c    0.856443    0.725279    0.880752     0.86902    1.000000    
     53 O     c    0.733068    0.345667    0.736883     0.86902    1.000000    
     54 O     c    0.733139    0.636925    0.736709     0.86902    1.000000    
     55 O     c    0.000650    0.627977    0.999702     0.86902    1.000000    
     56 O     c    0.794143    0.606224    0.039048     0.86902    1.000000    
     57 O     c    0.794229    0.376154    0.039236     0.86902    1.000000    
     58 O     c    0.894918    0.788125    0.078578     0.86902    1.000000    
     59 O     c    0.895007    0.194214    0.078466     0.86902    1.000000    
     60 O     c    0.638999    0.491210    0.119174     0.86902    1.000000    
     61 O     c    0.644910    0.225252    0.880762     0.86902    1.000000    
     62 O     c    0.644880    0.757199    0.880722     0.86902    1.000000    
     63 O     c    0.768233    0.136945    0.736727     0.86902    1.000000    
     64 O     c    0.768242    0.845651    0.736853     0.86902    1.000000    
     65 O     c    0.500654    0.854433    0.999740     0.86902    1.000000    
     66 O     c    0.707147    0.876152    0.039179     0.86902    1.000000    
     67 O     c    0.707206    0.106214    0.039075     0.86902    1.000000    
     68 O     c    0.606354    0.694228    0.078457     0.86902    1.000000    
     69 O     c    0.606441    0.288126    0.078571     0.86902    1.000000    
     70 O     c    0.862343    0.991207    0.119208     0.86902    1.000000    
     71 O     c    0.356479    0.225221    0.618737     0.86902    1.000000    
     72 O     c    0.356457    0.757151    0.618721     0.86902    1.000000    
     73 O     c    0.233139    0.136772    0.762653     0.86902    1.000000    
     74 O     c    0.233113    0.845523    0.762706     0.86902    1.000000    
     75 O     c    0.500651    0.854433    0.499749     0.86902    1.000000    
     76 O     c    0.294144    0.876158    0.460392     0.86902    1.000000    
     77 O     c    0.294203    0.106234    0.460317     0.86902    1.000000    
     78 O     c    0.394933    0.694254    0.420918     0.86902    1.000000    
     79 O     c    0.394985    0.288155    0.420975     0.86902    1.000000    
     80 O     c    0.139003    0.991193    0.380280     0.86902    1.000000    
     81 O     c    0.856440    0.725284    0.380748     0.86902    1.000000    
     82 O     c    0.856468    0.257239    0.380745     0.86902    1.000000    
     83 O     c    0.733129    0.636925    0.236714     0.86902    1.000000    
     84 O     c    0.733070    0.345667    0.236879     0.86902    1.000000    
     85 O     c    0.000718    0.354425    0.499783     0.86902    1.000000    
     86 O     c    0.794232    0.376154    0.539241     0.86902    1.000000    
     87 O     c    0.794140    0.606224    0.539040     0.86902    1.000000    
     88 O     c    0.895010    0.194213    0.578464     0.86902    1.000000    
     89 O     c    0.894917    0.788124    0.578574     0.86902    1.000000    
     90 O     c    0.639001    0.491210    0.619175     0.86902    1.000000    
     91 O     c    0.144896    0.725216    0.118710     0.86902    1.000000    
     92 O     c    0.144909    0.257109    0.118727     0.86902    1.000000    
     93 O     c    0.268249    0.636799    0.262628     0.86902    1.000000    
     94 O     c    0.268196    0.345504    0.262743     0.86902    1.000000    
     95 O     c    0.000716    0.354425    0.999781     0.86902    1.000000    
     96 O     c    0.207218    0.376168    0.960429     0.86902    1.000000    
     97 O     c    0.207147    0.606235    0.960280     0.86902    1.000000    
     98 O     c    0.106432    0.194265    0.920908     0.86902    1.000000    
     99 O     c    0.106361    0.788156    0.920957     0.86902    1.000000    
    100 O     c    0.362337    0.491190    0.880260     0.86902    1.000000    
    101 O     c    0.356460    0.757157    0.118717     0.86902    1.000000    
    102 O     c    0.356478    0.225226    0.118737     0.86902    1.000000    
    103 O     c    0.233123    0.845524    0.262711     0.86902    1.000000    
    104 O     c    0.233137    0.136772    0.262650     0.86902    1.000000    
    105 O     c    0.500700    0.127973    0.999713     0.86902    1.000000    
    106 O     c    0.294200    0.106235    0.960321     0.86902    1.000000    
    107 O     c    0.294147    0.876159    0.960384     0.86902    1.000000    
    108 O     c    0.394983    0.288154    0.920974     0.86902    1.000000    
    109 O     c    0.394934    0.694253    0.920914     0.86902    1.000000    
    110 O     c    0.139001    0.991193    0.880281     0.86902    1.000000    
    111 O     c    0.644876    0.757204    0.380726     0.86902    1.000000    
    112 O     c    0.644911    0.225257    0.380762     0.86902    1.000000    
    113 O     c    0.768232    0.845652    0.236850     0.86902    1.000000    
    114 O     c    0.768235    0.136945    0.236731     0.86902    1.000000    
    115 O     c    0.500702    0.127973    0.499712     0.86902    1.000000    
    116 O     c    0.707210    0.106214    0.539070     0.86902    1.000000    
    117 O     c    0.707144    0.876153    0.539186     0.86902    1.000000    
    118 O     c    0.606443    0.288125    0.578572     0.86902    1.000000    
    119 O     c    0.606354    0.694227    0.578460     0.86902    1.000000    
    120 O     c    0.862345    0.991206    0.619205     0.86902    1.000000    
    121 O     s    0.144910 *  0.257104 *  0.618728 *  -2.86902    1.000000    
    122 O     s    0.144892 *  0.725211 *  0.618706 *  -2.86902    1.000000    
    123 O     s    0.268198 *  0.345504 *  0.762739 *  -2.86902    1.000000    
    124 O     s    0.268239 *  0.636798 *  0.762631 *  -2.86902    1.000000    
    125 O     s    0.000647 *  0.627977 *  0.499694 *  -2.86902    1.000000    
    126 O     s    0.207144 *  0.606234 *  0.460272 *  -2.86902    1.000000    
    127 O     s    0.207221 *  0.376167 *  0.460435 *  -2.86902    1.000000    
    128 O     s    0.106361 *  0.788157 *  0.420954 *  -2.86902    1.000000    
    129 O     s    0.106434 *  0.194266 *  0.420907 *  -2.86902    1.000000    
    130 O     s    0.362338 *  0.491190 *  0.380261 *  -2.86902    1.000000    
    131 O     s    0.856468 *  0.257233 *  0.880745 *  -2.86902    1.000000    
    132 O     s    0.856443 *  0.725279 *  0.880752 *  -2.86902    1.000000    
    133 O     s    0.733068 *  0.345667 *  0.736883 *  -2.86902    1.000000    
    134 O     s    0.733139 *  0.636925 *  0.736709 *  -2.86902    1.000000    
    135 O     s    0.000650 *  0.627977 *  0.999702 *  -2.86902    1.000000    
    136 O     s    0.794143 *  0.606224 *  0.039048 *  -2.86902    1.000000    
    137 O     s    0.794229 *  0.376154 *  0.039236 *  -2.86902    1.000000    
    138 O     s    0.894918 *  0.788125 *  0.078578 *  -2.86902    1.000000    
    139 O     s    0.895007 *  0.194214 *  0.078466 *  -2.86902    1.000000    
    140 O     s    0.638999 *  0.491210 *  0.119174 *  -2.86902    1.000000    
    141 O     s    0.644910 *  0.225252 *  0.880762 *  -2.86902    1.000000    
    142 O     s    0.644880 *  0.757199 *  0.880722 *  -2.86902    1.000000    
    143 O     s    0.768233 *  0.136945 *  0.736727 *  -2.86902    1.000000    
    144 O     s    0.768242 *  0.845651 *  0.736853 *  -2.86902    1.000000    
    145 O     s    0.500654 *  0.854433 *  0.999740 *  -2.86902    1.000000    
    146 O     s    0.707147 *  0.876152 *  0.039179 *  -2.86902    1.000000    
    147 O     s    0.707206 *  0.106214 *  0.039075 *  -2.86902    1.000000    
    148 O     s    0.606354 *  0.694228 *  0.078457 *  -2.86902    1.000000    
    149 O     s    0.606441 *  0.288126 *  0.078571 *  -2.86902    1.000000    
    150 O     s    0.862343 *  0.991207 *  0.119208 *  -2.86902    1.000000    
    151 O     s    0.356479 *  0.225221 *  0.618737 *  -2.86902    1.000000    
    152 O     s    0.356457 *  0.757151 *  0.618721 *  -2.86902    1.000000    
    153 O     s    0.233139 *  0.136772 *  0.762653 *  -2.86902    1.000000    
    154 O     s    0.233113 *  0.845523 *  0.762706 *  -2.86902    1.000000    
    155 O     s    0.500651 *  0.854433 *  0.499749 *  -2.86902    1.000000    
    156 O     s    0.294144 *  0.876158 *  0.460392 *  -2.86902    1.000000    
    157 O     s    0.294203 *  0.106234 *  0.460317 *  -2.86902    1.000000    
    158 O     s    0.394933 *  0.694254 *  0.420918 *  -2.86902    1.000000    
    159 O     s    0.394985 *  0.288155 *  0.420975 *  -2.86902    1.000000    
    160 O     s    0.139003 *  0.991193 *  0.380280 *  -2.86902    1.000000    
    161 O     s    0.856440 *  0.725284 *  0.380748 *  -2.86902    1.000000    
    162 O     s    0.856468 *  0.257239 *  0.380745 *  -2.86902    1.000000    
    163 O     s    0.733129 *  0.636925 *  0.236714 *  -2.86902    1.000000    
    164 O     s    0.733070 *  0.345667 *  0.236879 *  -2.86902    1.000000    
    165 O     s    0.000718 *  0.354425 *  0.499783 *  -2.86902    1.000000    
    166 O     s    0.794232 *  0.376154 *  0.539241 *  -2.86902    1.000000    
    167 O     s    0.794140 *  0.606224 *  0.539040 *  -2.86902    1.000000    
    168 O     s    0.895010 *  0.194213 *  0.578464 *  -2.86902    1.000000    
    169 O     s    0.894917 *  0.788124 *  0.578574 *  -2.86902    1.000000    
    170 O     s    0.639001 *  0.491210 *  0.619175 *  -2.86902    1.000000    
    171 O     s    0.144896 *  0.725216 *  0.118710 *  -2.86902    1.000000    
    172 O     s    0.144909 *  0.257109 *  0.118727 *  -2.86902    1.000000    
    173 O     s    0.268249 *  0.636799 *  0.262628 *  -2.86902    1.000000    
    174 O     s    0.268196 *  0.345504 *  0.262743 *  -2.86902    1.000000    
    175 O     s    0.000716 *  0.354425 *  0.999781 *  -2.86902    1.000000    
    176 O     s    0.207218 *  0.376168 *  0.960429 *  -2.86902    1.000000    
    177 O     s    0.207147 *  0.606235 *  0.960280 *  -2.86902    1.000000    
    178 O     s    0.106432 *  0.194265 *  0.920908 *  -2.86902    1.000000    
    179 O     s    0.106361 *  0.788156 *  0.920957 *  -2.86902    1.000000    
    180 O     s    0.362337 *  0.491190 *  0.880260 *  -2.86902    1.000000    
    181 O     s    0.356460 *  0.757157 *  0.118717 *  -2.86902    1.000000    
    182 O     s    0.356478 *  0.225226 *  0.118737 *  -2.86902    1.000000    
    183 O     s    0.233123 *  0.845524 *  0.262711 *  -2.86902    1.000000    
    184 O     s    0.233137 *  0.136772 *  0.262650 *  -2.86902    1.000000    
    185 O     s    0.500700 *  0.127973 *  0.999713 *  -2.86902    1.000000    
    186 O     s    0.294200 *  0.106235 *  0.960321 *  -2.86902    1.000000    
    187 O     s    0.294147 *  0.876159 *  0.960384 *  -2.86902    1.000000    
    188 O     s    0.394983 *  0.288154 *  0.920974 *  -2.86902    1.000000    
    189 O     s    0.394934 *  0.694253 *  0.920914 *  -2.86902    1.000000    
    190 O     s    0.139001 *  0.991193 *  0.880281 *  -2.86902    1.000000    
    191 O     s    0.644876 *  0.757204 *  0.380726 *  -2.86902    1.000000    
    192 O     s    0.644911 *  0.225257 *  0.380762 *  -2.86902    1.000000    
    193 O     s    0.768232 *  0.845652 *  0.236850 *  -2.86902    1.000000    
    194 O     s    0.768235 *  0.136945 *  0.236731 *  -2.86902    1.000000    
    195 O     s    0.500702 *  0.127973 *  0.499712 *  -2.86902    1.000000    
    196 O     s    0.707210 *  0.106214 *  0.539070 *  -2.86902    1.000000    
    197 O     s    0.707144 *  0.876153 *  0.539186 *  -2.86902    1.000000    
    198 O     s    0.606443 *  0.288125 *  0.578572 *  -2.86902    1.000000    
    199 O     s    0.606354 *  0.694227 *  0.578460 *  -2.86902    1.000000    
    200 O     s    0.862345 *  0.991206 *  0.619205 *  -2.86902    1.000000    
--------------------------------------------------------------------------------



********************************************************************************
*  General input information                                                   *
********************************************************************************

  Species output for all configurations : 

--------------------------------------------------------------------------------
  Species    Type    Atomic    Atomic    Charge       Radii (Angs)     Library
                     Number     Mass       (e)     Cova   Ionic  VDW   Symbol
--------------------------------------------------------------------------------
    O        Core        8      16.00   0.869020   0.730  0.000  1.360 O        
    O        Shell       8       0.00  -2.869020   0.730  0.000  0.000 O        
    Si       Core       14      28.09   4.000000   1.200  0.000  2.100 Si       
--------------------------------------------------------------------------------


  Lattice summation method               =    Ewald          (3-D)
                                         =    Parry          (2-D)
                                         =    Saunders et al (1-D)
  Accuracy factor for lattice sums       =   12.000


  Analytic derivatives to be used

  Time limit = Infinity

  Maximum range for interatomic potentials =    100000.000000 Angstroms

  General interatomic potentials :

--------------------------------------------------------------------------------
Atom  Types   Potential      Parameter       Value         Units   Cutoffs(Ang)
  1     2                                                            Min /  Max 
--------------------------------------------------------------------------------
Si   c O    s Buckingham    Buckingham A     1283.9070    eV        0.000 10.000
                            Buckingham rho  0.32052000    Ang       
                            Buckingham C     10.661580    eV*Ang^6  
--------------------------------------------------------------------------------
O    s O    s Buckingham    Buckingham A     22764.000    eV        0.000 12.000
                            Buckingham rho  0.14900000    Ang       
                            Buckingham C     27.879000    eV*Ang^6  
--------------------------------------------------------------------------------
O    c O    s Spring (c-s)  Spring k 2       74.920000    eV*Ang^-2 0.000  1.100
                            Spring k 4       0.0000000    eV*Ang^-4 
--------------------------------------------------------------------------------

  General Three-body potentials :

--------------------------------------------------------------------------------
  Atoms       Potential      Parameter       Value         Units   Cutoffs(Ang)
  1 / 2 / 3                                                          Min /  Max 
--------------------------------------------------------------------------------
Si    core    Harmonic      Three-body cnst  2.0972400    eV*rad^-2 0.000  1.900
O     shel                  Three-body angl  109.47000    degrees   0.000  1.900
O     shel                  Three-body k4    0.0000000    eV*rad^-4 0.000  3.500
                            Three-body k3    0.0000000    eV*rad^-3 
--------------------------------------------------------------------------------
Si    core    Harmonic      Three-body cnst  2.0972400    eV*rad^-2 0.000  1.900
O     shel                  Three-body angl  109.47000    degrees   0.000  1.900
õ(    shel                  Three-body k4    0.0000000    eV*rad^-4 0.000  3.500
                            Three-body k3    0.0000000    eV*rad^-3 
--------------------------------------------------------------------------------
Si    core    Harmonic      Three-body cnst  2.0972400    eV*rad^-2 0.000  1.900
õ(    shel                  Three-body angl  109.47000    degrees   0.000  1.900
õ(    shel                  Three-body k4    0.0000000    eV*rad^-4 0.000  3.500
                            Three-body k3    0.0000000    eV*rad^-3 
--------------------------------------------------------------------------------

********************************************************************************
*  Output for configuration   1 : ReferenceDataBase/THO_posit_00.00GPa         *
********************************************************************************


  Components of energy : 

--------------------------------------------------------------------------------
  Interatomic potentials     =        1171.38829088 eV    
  Three-body potentials      =           0.09383073 eV    
  Monopole - monopole (real) =       -4505.49299272 eV    
  Monopole - monopole (recip)=       -1697.48088402 eV    
  Monopole - monopole (total)=       -6202.97387673 eV    
--------------------------------------------------------------------------------
  Total lattice energy       =       -5031.49175512 eV    
--------------------------------------------------------------------------------
  Total lattice energy       =         -485462.0410 kJ/(mole unit cells)
--------------------------------------------------------------------------------


  Number of variables =      240

  Maximum number of calculations  =           500
  Maximum Hessian update interval =            10
  Maximum step size               =   0.100000000
  Maximum parameter tolerance     =   0.000010000
  Maximum function  tolerance     =   0.000010000
  Maximum gradient  tolerance     =   0.001000000
  Maximum gradient  component     =   0.010000000

  Newton-Raphson optimiser to be used

  BFGS hessian update to be used

  Lower half triangular hessian to be used

  Minimiser to switch to RFO
  When gradient norm is less than     0.080000

  Switch max step size to       0.30000000 when gnorm is less than     0.005000

  Shell only optimisation

  Dumpfile to be written after every cycle

  Start of bulk optimisation :

  Cycle:      0 Energy:     -5031.491755  Gnorm:      9.024739  CPU:    0.289
  ** Hessian calculated **
  Cycle:      1 Energy:     -5132.302235  Gnorm:      1.646805  CPU:    0.602
  ** Hessian calculated **
  Cycle:      2 Energy:     -5134.940439  Gnorm:      0.822293  CPU:    1.039
  Cycle:      3 Energy:     -5135.598266  Gnorm:      0.410345  CPU:    1.243
  Cycle:      4 Energy:     -5135.762351  Gnorm:      0.204985  CPU:    1.461
  Cycle:      5 Energy:     -5135.803277  Gnorm:      0.102447  CPU:    1.667
  Cycle:      6 Energy:     -5135.813503  Gnorm:      0.051213  CPU:    1.903
  ** Hessian has required structure
  ** Hessian has required structure
  Cycle:      7 Energy:     -5135.816058  Gnorm:      0.025605  CPU:    2.393
  ** Hessian has required structure
  Cycle:      8 Energy:     -5135.816697  Gnorm:      0.012802  CPU:    2.633
  ** Hessian has required structure
  Cycle:      9 Energy:     -5135.816857  Gnorm:      0.006401  CPU:    2.896
  ** Hessian has required structure
  Cycle:     10 Energy:     -5135.816896  Gnorm:      0.003200  CPU:    3.136
  ** Hessian has required structure
  Cycle:     11 Energy:     -5135.816910  Gnorm:      0.000000  CPU:    3.373
  ** Hessian has required structure
  Cycle:     12 Energy:     -5135.816910  Gnorm:      0.000000  CPU:    3.651
  ** Hessian has required structure


  **** Optimisation achieved ****


  Final energy =   -5135.81690978 eV      
  Final Gnorm  =       0.00000008

  Components of energy : 

--------------------------------------------------------------------------------
  Interatomic potentials     =        1413.17945096 eV    
  Three-body potentials      =           1.72362332 eV    
  Monopole - monopole (real) =       -4146.95464821 eV    
  Monopole - monopole (recip)=       -2403.76533585 eV    
  Monopole - monopole (total)=       -6550.71998406 eV    
--------------------------------------------------------------------------------
  Total lattice energy       =       -5135.81690978 eV    
--------------------------------------------------------------------------------
  Total lattice energy       =         -495527.8236 kJ/(mole unit cells)
--------------------------------------------------------------------------------

  Final fractional coordinates of atoms :

--------------------------------------------------------------------------------
   No.  Atomic        x           y          z          Radius
        Label       (Frac)      (Frac)     (Frac)       (Angs) 
--------------------------------------------------------------------------------
     1  Si    c     0.115211    0.686568    0.500186    0.000000
     2  Si    c     0.115271    0.295816    0.500243    0.000000
     3  Si    c     0.308891    0.375056    0.380674    0.000000
     4  Si    c     0.308870    0.607314    0.380586    0.000000
     5  Si    c     0.886090    0.686575    0.999241    0.000000
     6  Si    c     0.886153    0.295832    0.999278    0.000000
     7  Si    c     0.692481    0.375091    0.118893    0.000000
     8  Si    c     0.692452    0.607342    0.118782    0.000000
     9  Si    c     0.615213    0.795830    0.999247    0.000000
    10  Si    c     0.615265    0.186563    0.999251    0.000000
    11  Si    c     0.808905    0.107342    0.118804    0.000000
    12  Si    c     0.808867    0.875086    0.118882    0.000000
    13  Si    c     0.386095    0.795825    0.500225    0.000000
    14  Si    c     0.386143    0.186571    0.500216    0.000000
    15  Si    c     0.192491    0.107310    0.380605    0.000000
    16  Si    c     0.192451    0.875059    0.380654    0.000000
    17  Si    c     0.886155    0.295834    0.499279    0.000000
    18  Si    c     0.886087    0.686576    0.499235    0.000000
    19  Si    c     0.692454    0.607341    0.618780    0.000000
    20  Si    c     0.692482    0.375090    0.618896    0.000000
    21  Si    c     0.115269    0.295817    0.000241    0.000000
    22  Si    c     0.115213    0.686570    0.000191    0.000000
    23  Si    c     0.308869    0.607314    0.880588    0.000000
    24  Si    c     0.308889    0.375056    0.880671    0.000000
    25  Si    c     0.386141    0.186573    0.000217    0.000000
    26  Si    c     0.386097    0.795827    0.000219    0.000000
    27  Si    c     0.192449    0.875059    0.880651    0.000000
    28  Si    c     0.192490    0.107309    0.880608    0.000000
    29  Si    c     0.615267    0.186563    0.499250    0.000000
    30  Si    c     0.615211    0.795831    0.499253    0.000000
    31  Si    c     0.808869    0.875086    0.618883    0.000000
    32  Si    c     0.808907    0.107341    0.618801    0.000000
    33  Si    c     0.250685    0.241146    0.690410    0.000000
    34  Si    c     0.750674    0.241272    0.809083    0.000000
    35  Si    c     0.750670    0.741262    0.309062    0.000000
    36  Si    c     0.250681    0.741171    0.190387    0.000000
    37  Si    c     0.250674    0.741168    0.690387    0.000000
    38  Si    c     0.750677    0.741259    0.809062    0.000000
    39  Si    c     0.750675    0.241275    0.309083    0.000000
    40  Si    c     0.250683    0.241149    0.190410    0.000000
    41  O     c     0.144910    0.257104    0.618728    0.000000
    42  O     c     0.144892    0.725211    0.618706    0.000000
    43  O     c     0.268198    0.345504    0.762739    0.000000
    44  O     c     0.268239    0.636798    0.762631    0.000000
    45  O     c     0.000647    0.627977    0.499694    0.000000
    46  O     c     0.207144    0.606234    0.460272    0.000000
    47  O     c     0.207221    0.376167    0.460435    0.000000
    48  O     c     0.106361    0.788157    0.420954    0.000000
    49  O     c     0.106434    0.194266    0.420907    0.000000
    50  O     c     0.362338    0.491190    0.380261    0.000000
    51  O     c     0.856468    0.257233    0.880745    0.000000
    52  O     c     0.856443    0.725279    0.880752    0.000000
    53  O     c     0.733068    0.345667    0.736883    0.000000
    54  O     c     0.733139    0.636925    0.736709    0.000000
    55  O     c     0.000650    0.627977    0.999702    0.000000
    56  O     c     0.794143    0.606224    0.039048    0.000000
    57  O     c     0.794229    0.376154    0.039236    0.000000
    58  O     c     0.894918    0.788125    0.078578    0.000000
    59  O     c     0.895007    0.194214    0.078466    0.000000
    60  O     c     0.638999    0.491210    0.119174    0.000000
    61  O     c     0.644910    0.225252    0.880762    0.000000
    62  O     c     0.644880    0.757199    0.880722    0.000000
    63  O     c     0.768233    0.136945    0.736727    0.000000
    64  O     c     0.768242    0.845651    0.736853    0.000000
    65  O     c     0.500654    0.854433    0.999740    0.000000
    66  O     c     0.707147    0.876152    0.039179    0.000000
    67  O     c     0.707206    0.106214    0.039075    0.000000
    68  O     c     0.606354    0.694228    0.078457    0.000000
    69  O     c     0.606441    0.288126    0.078571    0.000000
    70  O     c     0.862343    0.991207    0.119208    0.000000
    71  O     c     0.356479    0.225221    0.618737    0.000000
    72  O     c     0.356457    0.757151    0.618721    0.000000
    73  O     c     0.233139    0.136772    0.762653    0.000000
    74  O     c     0.233113    0.845523    0.762706    0.000000
    75  O     c     0.500651    0.854433    0.499749    0.000000
    76  O     c     0.294144    0.876158    0.460392    0.000000
    77  O     c     0.294203    0.106234    0.460317    0.000000
    78  O     c     0.394933    0.694254    0.420918    0.000000
    79  O     c     0.394985    0.288155    0.420975    0.000000
    80  O     c     0.139003    0.991193    0.380280    0.000000
    81  O     c     0.856440    0.725284    0.380748    0.000000
    82  O     c     0.856468    0.257239    0.380745    0.000000
    83  O     c     0.733129    0.636925    0.236714    0.000000
    84  O     c     0.733070    0.345667    0.236879    0.000000
    85  O     c     0.000718    0.354425    0.499783    0.000000
    86  O     c     0.794232    0.376154    0.539241    0.000000
    87  O     c     0.794140    0.606224    0.539040    0.000000
    88  O     c     0.895010    0.194213    0.578464    0.000000
    89  O     c     0.894917    0.788124    0.578574    0.000000
    90  O     c     0.639001    0.491210    0.619175    0.000000
    91  O     c     0.144896    0.725216    0.118710    0.000000
    92  O     c     0.144909    0.257109    0.118727    0.000000
    93  O     c     0.268249    0.636799    0.262628    0.000000
    94  O     c     0.268196    0.345504    0.262743    0.000000
    95  O     c     0.000716    0.354425    0.999781    0.000000
    96  O     c     0.207218    0.376168    0.960429    0.000000
    97  O     c     0.207147    0.606235    0.960280    0.000000
    98  O     c     0.106432    0.194265    0.920908    0.000000
    99  O     c     0.106361    0.788156    0.920957    0.000000
   100  O     c     0.362337    0.491190    0.880260    0.000000
   101  O     c     0.356460    0.757157    0.118717    0.000000
   102  O     c     0.356478    0.225226    0.118737    0.000000
   103  O     c     0.233123    0.845524    0.262711    0.000000
   104  O     c     0.233137    0.136772    0.262650    0.000000
   105  O     c     0.500700    0.127973    0.999713    0.000000
   106  O     c     0.294200    0.106235    0.960321    0.000000
   107  O     c     0.294147    0.876159    0.960384    0.000000
   108  O     c     0.394983    0.288154    0.920974    0.000000
   109  O     c     0.394934    0.694253    0.920914    0.000000
   110  O     c     0.139001    0.991193    0.880281    0.000000
   111  O     c     0.644876    0.757204    0.380726    0.000000
   112  O     c     0.644911    0.225257    0.380762    0.000000
   113  O     c     0.768232    0.845652    0.236850    0.000000
   114  O     c     0.768235    0.136945    0.236731    0.000000
   115  O     c     0.500702    0.127973    0.499712    0.000000
   116  O     c     0.707210    0.106214    0.539070    0.000000
   117  O     c     0.707144    0.876153    0.539186    0.000000
   118  O     c     0.606443    0.288125    0.578572    0.000000
   119  O     c     0.606354    0.694227    0.578460    0.000000
   120  O     c     0.862345    0.991206    0.619205    0.000000
   121  O     s     0.153358    0.259812    0.613518    0.000000
   122  O     s     0.153336    0.722510    0.613492    0.000000
   123  O     s     0.270861    0.337299    0.767918    0.000000
   124  O     s     0.270889    0.645009    0.767821    0.000000
   125  O     s     0.000648    0.641199    0.499698    0.000000
   126  O     s     0.207835    0.615489    0.456074    0.000000
   127  O     s     0.207904    0.366908    0.456218    0.000000
   128  O     s     0.116694    0.787044    0.424913    0.000000
   129  O     s     0.116762    0.195370    0.424877    0.000000
   130  O     s     0.350309    0.491189    0.380240    0.000000
   131  O     s     0.848022    0.259928    0.885962    0.000000
   132  O     s     0.847997    0.722575    0.885961    0.000000
   133  O     s     0.730428    0.337446    0.731685    0.000000
   134  O     s     0.730480    0.645122    0.731535    0.000000
   135  O     s     0.000650    0.641199    0.999705    0.000000
   136  O     s     0.793457    0.615484    0.043262    0.000000
   137  O     s     0.793534    0.366902    0.043426    0.000000
   138  O     s     0.884591    0.787023    0.074608    0.000000
   139  O     s     0.884672    0.195334    0.074516    0.000000
   140  O     s     0.651032    0.491212    0.119203    0.000000
   141  O     s     0.653357    0.222553    0.885973    0.000000
   142  O     s     0.653327    0.759900    0.885939    0.000000
   143  O     s     0.770890    0.145139    0.731552    0.000000
   144  O     s     0.770892    0.837431    0.731657    0.000000
   145  O     s     0.500654    0.841209    0.999739    0.000000
   146  O     s     0.707837    0.866900    0.043377    0.000000
   147  O     s     0.707893    0.115475    0.043287    0.000000
   148  O     s     0.616689    0.695345    0.074503    0.000000
   149  O     s     0.616766    0.287023    0.074605    0.000000
   150  O     s     0.850313    0.991209    0.119230    0.000000
   151  O     s     0.348032    0.222516    0.613522    0.000000
   152  O     s     0.348007    0.759852    0.613509    0.000000
   153  O     s     0.230485    0.144985    0.767842    0.000000
   154  O     s     0.230459    0.837317    0.767887    0.000000
   155  O     s     0.500652    0.841209    0.499747    0.000000
   156  O     s     0.293458    0.866903    0.456180    0.000000
   157  O     s     0.293514    0.115488    0.456114    0.000000
   158  O     s     0.384604    0.695362    0.424882    0.000000
   159  O     s     0.384652    0.287042    0.424935    0.000000
   160  O     s     0.151036    0.991191    0.380254    0.000000
   161  O     s     0.847994    0.722579    0.385957    0.000000
   162  O     s     0.848023    0.259933    0.385963    0.000000
   163  O     s     0.730472    0.645123    0.231538    0.000000
   164  O     s     0.730429    0.337447    0.231681    0.000000
   165  O     s     0.000717    0.341202    0.499778    0.000000
   166  O     s     0.793537    0.366903    0.543430    0.000000
   167  O     s     0.793455    0.615484    0.543255    0.000000
   168  O     s     0.884674    0.195334    0.574514    0.000000
   169  O     s     0.884591    0.787022    0.574605    0.000000
   170  O     s     0.651034    0.491212    0.619204    0.000000
   171  O     s     0.153340    0.722515    0.113496    0.000000
   172  O     s     0.153357    0.259816    0.113517    0.000000
   173  O     s     0.270898    0.645010    0.267818    0.000000
   174  O     s     0.270859    0.337300    0.267921    0.000000
   175  O     s     0.000714    0.341202    0.999776    0.000000
   176  O     s     0.207901    0.366908    0.956213    0.000000
   177  O     s     0.207837    0.615490    0.956081    0.000000
   178  O     s     0.116760    0.195369    0.924878    0.000000
   179  O     s     0.116694    0.787044    0.924916    0.000000
   180  O     s     0.350307    0.491189    0.880239    0.000000
   181  O     s     0.348011    0.759857    0.113505    0.000000
   182  O     s     0.348031    0.222520    0.113523    0.000000
   183  O     s     0.230468    0.837318    0.267891    0.000000
   184  O     s     0.230483    0.144986    0.267839    0.000000
   185  O     s     0.500700    0.141195    0.999718    0.000000
   186  O     s     0.293511    0.115489    0.956119    0.000000
   187  O     s     0.293460    0.866903    0.956173    0.000000
   188  O     s     0.384650    0.287042    0.924934    0.000000
   189  O     s     0.384604    0.695361    0.924879    0.000000
   190  O     s     0.151034    0.991191    0.880255    0.000000
   191  O     s     0.653324    0.759904    0.385943    0.000000
   192  O     s     0.653358    0.222558    0.385972    0.000000
   193  O     s     0.770884    0.837432    0.231655    0.000000
   194  O     s     0.770890    0.145140    0.231556    0.000000
   195  O     s     0.500703    0.141194    0.499717    0.000000
   196  O     s     0.707896    0.115475    0.543282    0.000000
   197  O     s     0.707835    0.866901    0.543382    0.000000
   198  O     s     0.616768    0.287022    0.574606    0.000000
   199  O     s     0.616689    0.695344    0.574506    0.000000
   200  O     s     0.850315    0.991209    0.619228    0.000000
--------------------------------------------------------------------------------

  Final internal derivatives :

--------------------------------------------------------------------------------
   No.  Atomic          a             b             c           Radius
        Label          (eV)          (eV)          (eV)        (eV/Angs)
--------------------------------------------------------------------------------
      1 Si    c       0.000000      0.000000      0.000000      0.000000
      2 Si    c       0.000000      0.000000      0.000000      0.000000
      3 Si    c       0.000000      0.000000      0.000000      0.000000
      4 Si    c       0.000000      0.000000      0.000000      0.000000
      5 Si    c       0.000000      0.000000      0.000000      0.000000
      6 Si    c       0.000000      0.000000      0.000000      0.000000
      7 Si    c       0.000000      0.000000      0.000000      0.000000
      8 Si    c       0.000000      0.000000      0.000000      0.000000
      9 Si    c       0.000000      0.000000      0.000000      0.000000
     10 Si    c       0.000000      0.000000      0.000000      0.000000
     11 Si    c       0.000000      0.000000      0.000000      0.000000
     12 Si    c       0.000000      0.000000      0.000000      0.000000
     13 Si    c       0.000000      0.000000      0.000000      0.000000
     14 Si    c       0.000000      0.000000      0.000000      0.000000
     15 Si    c       0.000000      0.000000      0.000000      0.000000
     16 Si    c       0.000000      0.000000      0.000000      0.000000
     17 Si    c       0.000000      0.000000      0.000000      0.000000
     18 Si    c       0.000000      0.000000      0.000000      0.000000
     19 Si    c       0.000000      0.000000      0.000000      0.000000
     20 Si    c       0.000000      0.000000      0.000000      0.000000
     21 Si    c       0.000000      0.000000      0.000000      0.000000
     22 Si    c       0.000000      0.000000      0.000000      0.000000
     23 Si    c       0.000000      0.000000      0.000000      0.000000
     24 Si    c       0.000000      0.000000      0.000000      0.000000
     25 Si    c       0.000000      0.000000      0.000000      0.000000
     26 Si    c       0.000000      0.000000      0.000000      0.000000
     27 Si    c       0.000000      0.000000      0.000000      0.000000
     28 Si    c       0.000000      0.000000      0.000000      0.000000
     29 Si    c       0.000000      0.000000      0.000000      0.000000
     30 Si    c       0.000000      0.000000      0.000000      0.000000
     31 Si    c       0.000000      0.000000      0.000000      0.000000
     32 Si    c       0.000000      0.000000      0.000000      0.000000
     33 Si    c       0.000000      0.000000      0.000000      0.000000
     34 Si    c       0.000000      0.000000      0.000000      0.000000
     35 Si    c       0.000000      0.000000      0.000000      0.000000
     36 Si    c       0.000000      0.000000      0.000000      0.000000
     37 Si    c       0.000000      0.000000      0.000000      0.000000
     38 Si    c       0.000000      0.000000      0.000000      0.000000
     39 Si    c       0.000000      0.000000      0.000000      0.000000
     40 Si    c       0.000000      0.000000      0.000000      0.000000
     41 O     c       0.000000      0.000000      0.000000      0.000000
     42 O     c       0.000000      0.000000      0.000000      0.000000
     43 O     c       0.000000      0.000000      0.000000      0.000000
     44 O     c       0.000000      0.000000      0.000000      0.000000
     45 O     c       0.000000      0.000000      0.000000      0.000000
     46 O     c       0.000000      0.000000      0.000000      0.000000
     47 O     c       0.000000      0.000000      0.000000      0.000000
     48 O     c       0.000000      0.000000      0.000000      0.000000
     49 O     c       0.000000      0.000000      0.000000      0.000000
     50 O     c       0.000000      0.000000      0.000000      0.000000
     51 O     c       0.000000      0.000000      0.000000      0.000000
     52 O     c       0.000000      0.000000      0.000000      0.000000
     53 O     c       0.000000      0.000000      0.000000      0.000000
     54 O     c       0.000000      0.000000      0.000000      0.000000
     55 O     c       0.000000      0.000000      0.000000      0.000000
     56 O     c       0.000000      0.000000      0.000000      0.000000
     57 O     c       0.000000      0.000000      0.000000      0.000000
     58 O     c       0.000000      0.000000      0.000000      0.000000
     59 O     c       0.000000      0.000000      0.000000      0.000000
     60 O     c       0.000000      0.000000      0.000000      0.000000
     61 O     c       0.000000      0.000000      0.000000      0.000000
     62 O     c       0.000000      0.000000      0.000000      0.000000
     63 O     c       0.000000      0.000000      0.000000      0.000000
     64 O     c       0.000000      0.000000      0.000000      0.000000
     65 O     c       0.000000      0.000000      0.000000      0.000000
     66 O     c       0.000000      0.000000      0.000000      0.000000
     67 O     c       0.000000      0.000000      0.000000      0.000000
     68 O     c       0.000000      0.000000      0.000000      0.000000
     69 O     c       0.000000      0.000000      0.000000      0.000000
     70 O     c       0.000000      0.000000      0.000000      0.000000
     71 O     c       0.000000      0.000000      0.000000      0.000000
     72 O     c       0.000000      0.000000      0.000000      0.000000
     73 O     c       0.000000      0.000000      0.000000      0.000000
     74 O     c       0.000000      0.000000      0.000000      0.000000
     75 O     c       0.000000      0.000000      0.000000      0.000000
     76 O     c       0.000000      0.000000      0.000000      0.000000
     77 O     c       0.000000      0.000000      0.000000      0.000000
     78 O     c       0.000000      0.000000      0.000000      0.000000
     79 O     c       0.000000      0.000000      0.000000      0.000000
     80 O     c       0.000000      0.000000      0.000000      0.000000
     81 O     c       0.000000      0.000000      0.000000      0.000000
     82 O     c       0.000000      0.000000      0.000000      0.000000
     83 O     c       0.000000      0.000000      0.000000      0.000000
     84 O     c       0.000000      0.000000      0.000000      0.000000
     85 O     c       0.000000      0.000000      0.000000      0.000000
     86 O     c       0.000000      0.000000      0.000000      0.000000
     87 O     c       0.000000      0.000000      0.000000      0.000000
     88 O     c       0.000000      0.000000      0.000000      0.000000
     89 O     c       0.000000      0.000000      0.000000      0.000000
     90 O     c       0.000000      0.000000      0.000000      0.000000
     91 O     c       0.000000      0.000000      0.000000      0.000000
     92 O     c       0.000000      0.000000      0.000000      0.000000
     93 O     c       0.000000      0.000000      0.000000      0.000000
     94 O     c       0.000000      0.000000      0.000000      0.000000
     95 O     c       0.000000      0.000000      0.000000      0.000000
     96 O     c       0.000000      0.000000      0.000000      0.000000
     97 O     c       0.000000      0.000000      0.000000      0.000000
     98 O     c       0.000000      0.000000      0.000000      0.000000
     99 O     c       0.000000      0.000000      0.000000      0.000000
    100 O     c       0.000000      0.000000      0.000000      0.000000
    101 O     c       0.000000      0.000000      0.000000      0.000000
    102 O     c       0.000000      0.000000      0.000000      0.000000
    103 O     c       0.000000      0.000000      0.000000      0.000000
    104 O     c       0.000000      0.000000      0.000000      0.000000
    105 O     c       0.000000      0.000000      0.000000      0.000000
    106 O     c       0.000000      0.000000      0.000000      0.000000
    107 O     c       0.000000      0.000000      0.000000      0.000000
    108 O     c       0.000000      0.000000      0.000000      0.000000
    109 O     c       0.000000      0.000000      0.000000      0.000000
    110 O     c       0.000000      0.000000      0.000000      0.000000
    111 O     c       0.000000      0.000000      0.000000      0.000000
    112 O     c       0.000000      0.000000      0.000000      0.000000
    113 O     c       0.000000      0.000000      0.000000      0.000000
    114 O     c       0.000000      0.000000      0.000000      0.000000
    115 O     c       0.000000      0.000000      0.000000      0.000000
    116 O     c       0.000000      0.000000      0.000000      0.000000
    117 O     c       0.000000      0.000000      0.000000      0.000000
    118 O     c       0.000000      0.000000      0.000000      0.000000
    119 O     c       0.000000      0.000000      0.000000      0.000000
    120 O     c       0.000000      0.000000      0.000000      0.000000
    121 O     s       0.000001     -0.000002     -0.000001      0.000000
    122 O     s       0.000001      0.000002     -0.000001      0.000000
    123 O     s      -0.000002     -0.000001      0.000001      0.000000
    124 O     s      -0.000002      0.000001      0.000001      0.000000
    125 O     s       0.000000     -0.000000      0.000000      0.000000
    126 O     s       0.000001      0.000002      0.000001      0.000000
    127 O     s       0.000001     -0.000002      0.000001      0.000000
    128 O     s       0.000002     -0.000001     -0.000001      0.000000
    129 O     s       0.000002      0.000001     -0.000001      0.000000
    130 O     s      -0.000000      0.000000      0.000000      0.000000
    131 O     s      -0.000001     -0.000002      0.000001      0.000000
    132 O     s      -0.000001      0.000002      0.000001      0.000000
    133 O     s       0.000002     -0.000001     -0.000001      0.000000
    134 O     s       0.000002      0.000001     -0.000001      0.000000
    135 O     s       0.000000     -0.000000      0.000000      0.000000
    136 O     s      -0.000001      0.000002     -0.000001      0.000000
    137 O     s      -0.000001     -0.000002     -0.000001      0.000000
    138 O     s      -0.000002     -0.000001      0.000001      0.000000
    139 O     s      -0.000002      0.000001      0.000001      0.000000
    140 O     s       0.000000      0.000000     -0.000000      0.000000
    141 O     s       0.000001      0.000002      0.000001      0.000000
    142 O     s       0.000001     -0.000002      0.000001      0.000000
    143 O     s      -0.000002      0.000001     -0.000001      0.000000
    144 O     s      -0.000002     -0.000001     -0.000001      0.000000
    145 O     s       0.000000      0.000000     -0.000000      0.000000
    146 O     s       0.000001     -0.000002     -0.000001      0.000000
    147 O     s       0.000001      0.000002     -0.000001      0.000000
    148 O     s       0.000002      0.000001      0.000001      0.000000
    149 O     s       0.000002     -0.000001      0.000001      0.000000
    150 O     s      -0.000000      0.000000     -0.000000      0.000000
    151 O     s      -0.000001      0.000002     -0.000001      0.000000
    152 O     s      -0.000001     -0.000002     -0.000001      0.000000
    153 O     s       0.000002      0.000001      0.000001      0.000000
    154 O     s       0.000002     -0.000001      0.000001      0.000000
    155 O     s       0.000000      0.000000      0.000000      0.000000
    156 O     s      -0.000001     -0.000002      0.000001      0.000000
    157 O     s      -0.000001      0.000002      0.000001      0.000000
    158 O     s      -0.000002      0.000001     -0.000001      0.000000
    159 O     s      -0.000002     -0.000001     -0.000001      0.000000
    160 O     s       0.000000      0.000000      0.000000      0.000000
    161 O     s      -0.000001      0.000002      0.000001      0.000000
    162 O     s      -0.000001     -0.000002      0.000001      0.000000
    163 O     s       0.000002      0.000001     -0.000001      0.000000
    164 O     s       0.000002     -0.000001     -0.000001      0.000000
    165 O     s       0.000000      0.000000     -0.000000      0.000000
    166 O     s      -0.000001     -0.000002     -0.000001      0.000000
    167 O     s      -0.000001      0.000002     -0.000001      0.000000
    168 O     s      -0.000002      0.000001      0.000001      0.000000
    169 O     s      -0.000002     -0.000001      0.000001      0.000000
    170 O     s       0.000000     -0.000000     -0.000000      0.000000
    171 O     s       0.000001      0.000002     -0.000001      0.000000
    172 O     s       0.000001     -0.000002     -0.000001      0.000000
    173 O     s      -0.000002      0.000001      0.000001      0.000000
    174 O     s      -0.000002     -0.000001      0.000001      0.000000
    175 O     s      -0.000000      0.000000     -0.000000      0.000000
    176 O     s       0.000001     -0.000002      0.000001      0.000000
    177 O     s       0.000001      0.000002      0.000001      0.000000
    178 O     s       0.000002      0.000001     -0.000001      0.000000
    179 O     s       0.000002     -0.000001     -0.000001      0.000000
    180 O     s      -0.000000     -0.000000      0.000000      0.000000
    181 O     s      -0.000001     -0.000002     -0.000001      0.000000
    182 O     s      -0.000001      0.000002     -0.000001      0.000000
    183 O     s       0.000002     -0.000001      0.000001      0.000000
    184 O     s       0.000002      0.000001      0.000001      0.000000
    185 O     s      -0.000000     -0.000000     -0.000000      0.000000
    186 O     s      -0.000001      0.000002      0.000001      0.000000
    187 O     s      -0.000001     -0.000002      0.000001      0.000000
    188 O     s      -0.000002     -0.000001     -0.000001      0.000000
    189 O     s      -0.000002      0.000001     -0.000001      0.000000
    190 O     s       0.000000      0.000000      0.000000      0.000000
    191 O     s       0.000001     -0.000002      0.000001      0.000000
    192 O     s       0.000001      0.000002      0.000001      0.000000
    193 O     s      -0.000002     -0.000001     -0.000001      0.000000
    194 O     s      -0.000002      0.000001     -0.000001      0.000000
    195 O     s      -0.000000     -0.000000      0.000000      0.000000
    196 O     s       0.000001      0.000002     -0.000001      0.000000
    197 O     s       0.000001     -0.000002     -0.000001      0.000000
    198 O     s       0.000002     -0.000001      0.000001      0.000000
    199 O     s       0.000002      0.000001      0.000001      0.000000
    200 O     s      -0.000000      0.000000     -0.000000      0.000000
--------------------------------------------------------------------------------
  Maximum abs         0.000002      0.000002      0.000001      0.000000
--------------------------------------------------------------------------------


  Time to end of optimisation =       4.2253 seconds


  Peak dynamic memory used =       4.42 MB 


  Timing analysis for GULP :

--------------------------------------------------------------------------------
  Task / Subroutine                                          Time (Seconds)
--------------------------------------------------------------------------------
  Calculation of reciprocal space energy and derivatives          1.5969
  Calculation of real space energy and derivatives                1.8193
  Calculation of three-body energy and derivatives                0.5592
  Calculation and manipulation of Hessian matrix                  0.2224
  Calculation of matrix inversion                                 0.0054
  Symmetry generation of equivalent positions                     0.0002
--------------------------------------------------------------------------------
  Total CPU time                                                  4.2253
--------------------------------------------------------------------------------


  Dump file written as ReferenceDataBase/THO_posit_00.00GPa.grs
  CIF file written as ReferenceDataBase/THO_posit_00.00GPa_opt.cif


  Job Finished at 10:18.55 26th June       2025                               

