********************************************************************************
*                       GENERAL UTILITY LATTICE PROGRAM                        *
*                                 Julian Gale                                  *
*                       Curtin Institute for Computation                       *
*                    School of Molecular and Life Sciences                     *
*                    Curtin University, Western Australia                      *
********************************************************************************
* Version = 6.1.2 * Last modified =   3rd November 2022                        *
********************************************************************************
*  optimise     - perform optimisation run                                     *
*  conp         - constant pressure calculation                                *
*  nosymmetry   - turn off symmetry after initial structure generation         *
********************************************************************************

  Job Started  at 18:39.37 20th April      2023                               

  Number of CPUs =     8


  Total number of configurations input =      1

********************************************************************************
*  Input for Configuration =   1 : ReferenceDataBase/8049967_122               *
********************************************************************************

  Formula = Si80O160                                                    

  Number of irreducible atoms/shells =     400


  Total number atoms/shells =     400

  Dimensionality = 3               :  Bulk   



  Cartesian lattice vectors (Angstroms) :

       26.145200    0.000000    0.000000
        0.000000   17.056900    0.000000
       17.564748    0.000000    8.814337

  Cell parameters (Angstroms/Degrees):

  a =      26.1452    alpha =  90.0000
  b =      17.0569    beta  =  26.6484
  c =      19.6523    gamma =  90.0000

  Initial cell volume =        3930.806882 Angs**3

  Temperature of configuration =   0.00     K 

  Pressure of configuration =         0.000 GPa 

  Fractional coordinates of asymmetric unit :

--------------------------------------------------------------------------------
   No.  Atomic       x           y          z         Charge      Occupancy
        Label      (Frac)      (Frac)     (Frac)        (e)         (Frac)  
--------------------------------------------------------------------------------
      1 Si    c    0.214090 *  0.229247 *  0.356454 *   4.00000    1.000000    
      2 Si    c    0.765944 *  0.229283 *  0.174398 *   4.00000    1.000000    
      3 Si    c    0.714076 *  0.479267 *  0.356491 *   4.00000    1.000000    
      4 Si    c    0.265930 *  0.479263 *  0.174435 *   4.00000    1.000000    
      5 Si    c    0.193009 *  0.367885 *  0.142710 *   4.00000    1.000000    
      6 Si    c    0.787033 *  0.367859 *  0.388127 *   4.00000    1.000000    
      7 Si    c    0.692995 *  0.117869 *  0.142738 *   4.00000    1.000000    
      8 Si    c    0.287019 *  0.117875 *  0.388156 *   4.00000    1.000000    
      9 Si    c    0.948968 *  0.333136 *  0.386077 *   4.00000    1.000000    
     10 Si    c    0.031082 *  0.333134 *  0.144738 *   4.00000    1.000000    
     11 Si    c    0.448956 *  0.083133 *  0.386093 *   4.00000    1.000000    
     12 Si    c    0.531070 *  0.083137 *  0.144753 *   4.00000    1.000000    
     13 Si    c    0.724088 *  0.192250 *  0.463255 *   4.00000    1.000000    
     14 Si    c    0.255967 *  0.192281 *  0.067572 *   4.00000    1.000000    
     15 Si    c    0.224090 *  0.442263 *  0.463243 *   4.00000    1.000000    
     16 Si    c    0.755968 *  0.442268 *  0.067561 *   4.00000    1.000000    
     17 Si    c    0.122914 *  0.129995 *  0.344415 *   4.00000    1.000000    
     18 Si    c    0.857127 *  0.129997 *  0.186410 *   4.00000    1.000000    
     19 Si    c    0.622916 *  0.380021 *  0.344424 *   4.00000    1.000000    
     20 Si    c    0.357128 *  0.379972 *  0.186420 *   4.00000    1.000000    
     21 O     c    0.259761 *  0.163080 *  0.352128 *   0.86902    1.000000    
     22 O     c    0.720177 *  0.163169 *  0.178818 *   0.86902    1.000000    
     23 O     c    0.759787 *  0.413084 *  0.352091 *   0.86902    1.000000    
     24 O     c    0.220203 *  0.413165 *  0.178781 *   0.86902    1.000000    
     25 O     c    0.187325 *  0.190882 *  0.316262 *   0.86902    1.000000    
     26 O     c    0.792710 *  0.190878 *  0.214570 *   0.86902    1.000000    
     27 O     c    0.687270 *  0.440934 *  0.316342 *   0.86902    1.000000    
     28 O     c    0.292654 *  0.440827 *  0.214649 *   0.86902    1.000000    
     29 O     c    0.312463 *  0.292531 *  0.226774 *   0.86902    1.000000    
     30 O     c    0.667643 *  0.292605 *  0.304044 *   0.86902    1.000000    
     31 O     c    0.812426 *  0.042570 *  0.226787 *   0.86902    1.000000    
     32 O     c    0.167605 *  0.042566 *  0.304058 *   0.86902    1.000000    
     33 O     c    0.100617 *  0.267810 *  0.021881 *   0.86902    1.000000    
     34 O     c    0.879431 *  0.267814 *  0.008938 *   0.86902    1.000000    
     35 O     c    0.600618 *  0.517810 *  0.021940 *   0.86902    1.000000    
     36 O     c    0.379433 *  0.517815 *  0.008997 *   0.86902    1.000000    
     37 O     c    0.258840 *  0.285685 *  0.066484 *   0.86902    1.000000    
     38 O     c    0.721217 *  0.285653 *  0.464391 *   0.86902    1.000000    
     39 O     c    0.758816 *  0.035666 *  0.066547 *   0.86902    1.000000    
     40 O     c    0.221193 *  0.035672 *  0.464455 *   0.86902    1.000000    
     41 O     c    0.056781 *  0.357193 *  0.303028 *   0.86902    1.000000    
     42 O     c    0.923266 *  0.357191 *  0.227789 *   0.86902    1.000000    
     43 O     c    0.556767 *  0.107184 *  0.303052 *   0.86902    1.000000    
     44 O     c    0.423251 *  0.107201 *  0.227813 *   0.86902    1.000000    
     45 O     c    0.238129 *  0.415968 *  0.024369 *   0.86902    1.000000    
     46 O     c    0.741925 *  0.415970 *  0.506440 *   0.86902    1.000000    
     47 O     c    0.738134 *  0.165923 *  0.024364 *   0.86902    1.000000    
     48 O     c    0.241931 *  0.166016 *  0.506435 *   0.86902    1.000000    
     49 O     c    0.990021 *  0.296339 *  0.265412 *   0.86902    1.000000    
     50 O     c    0.490013 *  0.046338 *  0.265422 *   0.86902    1.000000    
     51 O     c    0.872902 *  0.410095 *  0.461533 *   0.86902    1.000000    
     52 O     c    0.107157 *  0.410088 *  0.069271 *   0.86902    1.000000    
     53 O     c    0.372899 *  0.160096 *  0.461539 *   0.86902    1.000000    
     54 O     c    0.607154 *  0.160087 *  0.069278 *   0.86902    1.000000    
     55 O     c    0.831402 *  0.157030 *  0.294204 *   0.86902    1.000000    
     56 O     c    0.148656 *  0.157029 *  0.236603 *   0.86902    1.000000    
     57 O     c    0.331409 *  0.407021 *  0.294203 *   0.86902    1.000000    
     58 O     c    0.648663 *  0.407039 *  0.236603 *   0.86902    1.000000    
     59 O     c    0.990019 *  0.131422 *  0.015409 *   0.86902    1.000000    
     60 O     c    0.490013 *  0.381421 *  0.015406 *   0.86902    1.000000    
     61 Si    c    0.214091 *  0.229247 *  0.856452 *   4.00000    1.000000    
     62 Si    c    0.765945 *  0.229283 *  0.674397 *   4.00000    1.000000    
     63 Si    c    0.714075 *  0.479267 *  0.856492 *   4.00000    1.000000    
     64 Si    c    0.265930 *  0.479263 *  0.674436 *   4.00000    1.000000    
     65 Si    c    0.193008 *  0.367885 *  0.642710 *   4.00000    1.000000    
     66 Si    c    0.787032 *  0.367859 *  0.888127 *   4.00000    1.000000    
     67 Si    c    0.692995 *  0.117869 *  0.642738 *   4.00000    1.000000    
     68 Si    c    0.287020 *  0.117875 *  0.888155 *   4.00000    1.000000    
     69 Si    c    0.948967 *  0.333136 *  0.886077 *   4.00000    1.000000    
     70 Si    c    0.031082 *  0.333134 *  0.644738 *   4.00000    1.000000    
     71 Si    c    0.448957 *  0.083133 *  0.886091 *   4.00000    1.000000    
     72 Si    c    0.531072 *  0.083137 *  0.644751 *   4.00000    1.000000    
     73 Si    c    0.724089 *  0.192250 *  0.963255 *   4.00000    1.000000    
     74 Si    c    0.255967 *  0.192282 *  0.567572 *   4.00000    1.000000    
     75 Si    c    0.224090 *  0.442263 *  0.963244 *   4.00000    1.000000    
     76 Si    c    0.755968 *  0.442269 *  0.567561 *   4.00000    1.000000    
     77 Si    c    0.122914 *  0.129996 *  0.844415 *   4.00000    1.000000    
     78 Si    c    0.857127 *  0.129996 *  0.686411 *   4.00000    1.000000    
     79 Si    c    0.622915 *  0.380020 *  0.844424 *   4.00000    1.000000    
     80 Si    c    0.357128 *  0.379972 *  0.686420 *   4.00000    1.000000    
     81 O     c    0.259763 *  0.163080 *  0.852125 *   0.86902    1.000000    
     82 O     c    0.720179 *  0.163169 *  0.678816 *   0.86902    1.000000    
     83 O     c    0.759785 *  0.413084 *  0.852094 *   0.86902    1.000000    
     84 O     c    0.220201 *  0.413165 *  0.678784 *   0.86902    1.000000    
     85 O     c    0.187327 *  0.190882 *  0.816261 *   0.86902    1.000000    
     86 O     c    0.792710 *  0.190878 *  0.714569 *   0.86902    1.000000    
     87 O     c    0.687269 *  0.440934 *  0.816342 *   0.86902    1.000000    
     88 O     c    0.292654 *  0.440826 *  0.714649 *   0.86902    1.000000    
     89 O     c    0.312464 *  0.292531 *  0.726774 *   0.86902    1.000000    
     90 O     c    0.667643 *  0.292605 *  0.804044 *   0.86902    1.000000    
     91 O     c    0.812424 *  0.042570 *  0.726789 *   0.86902    1.000000    
     92 O     c    0.167604 *  0.042566 *  0.804059 *   0.86902    1.000000    
     93 O     c    0.100616 *  0.267810 *  0.521881 *   0.86902    1.000000    
     94 O     c    0.879431 *  0.267814 *  0.508938 *   0.86902    1.000000    
     95 O     c    0.600618 *  0.517809 *  0.521941 *   0.86902    1.000000    
     96 O     c    0.379432 *  0.517814 *  0.508997 *   0.86902    1.000000    
     97 O     c    0.258841 *  0.285685 *  0.566483 *   0.86902    1.000000    
     98 O     c    0.721217 *  0.285653 *  0.964391 *   0.86902    1.000000    
     99 O     c    0.758815 *  0.035666 *  0.566547 *   0.86902    1.000000    
    100 O     c    0.221192 *  0.035673 *  0.964456 *   0.86902    1.000000    
    101 O     c    0.056781 *  0.357192 *  0.803028 *   0.86902    1.000000    
    102 O     c    0.923266 *  0.357193 *  0.727789 *   0.86902    1.000000    
    103 O     c    0.556767 *  0.107185 *  0.803052 *   0.86902    1.000000    
    104 O     c    0.423252 *  0.107199 *  0.727813 *   0.86902    1.000000    
    105 O     c    0.238128 *  0.415968 *  0.524370 *   0.86902    1.000000    
    106 O     c    0.741925 *  0.415969 *  0.006441 *   0.86902    1.000000    
    107 O     c    0.738134 *  0.165923 *  0.524364 *   0.86902    1.000000    
    108 O     c    0.241931 *  0.166016 *  0.006434 *   0.86902    1.000000    
    109 O     c    0.990020 *  0.296338 *  0.765412 *   0.86902    1.000000    
    110 O     c    0.490016 *  0.046338 *  0.765419 *   0.86902    1.000000    
    111 O     c    0.872902 *  0.410095 *  0.961532 *   0.86902    1.000000    
    112 O     c    0.107157 *  0.410089 *  0.569272 *   0.86902    1.000000    
    113 O     c    0.372899 *  0.160096 *  0.961538 *   0.86902    1.000000    
    114 O     c    0.607155 *  0.160087 *  0.569276 *   0.86902    1.000000    
    115 O     c    0.831402 *  0.157030 *  0.794204 *   0.86902    1.000000    
    116 O     c    0.148656 *  0.157030 *  0.736603 *   0.86902    1.000000    
    117 O     c    0.331409 *  0.407021 *  0.794203 *   0.86902    1.000000    
    118 O     c    0.648663 *  0.407039 *  0.736603 *   0.86902    1.000000    
    119 O     c    0.990019 *  0.131420 *  0.515409 *   0.86902    1.000000    
    120 O     c    0.490013 *  0.381422 *  0.515405 *   0.86902    1.000000    
    121 Si    c    0.214086 *  0.729284 *  0.356498 *   4.00000    1.000000    
    122 Si    c    0.765940 *  0.729246 *  0.174442 *   4.00000    1.000000    
    123 Si    c    0.714103 *  0.979263 *  0.356456 *   4.00000    1.000000    
    124 Si    c    0.265957 *  0.979267 *  0.174402 *   4.00000    1.000000    
    125 Si    c    0.192998 *  0.867860 *  0.142769 *   4.00000    1.000000    
    126 Si    c    0.787023 *  0.867885 *  0.388185 *   4.00000    1.000000    
    127 Si    c    0.693013 *  0.617874 *  0.142738 *   4.00000    1.000000    
    128 Si    c    0.287036 *  0.617870 *  0.388156 *   4.00000    1.000000    
    129 Si    c    0.948950 *  0.833134 *  0.386157 *   4.00000    1.000000    
    130 Si    c    0.031064 *  0.833137 *  0.144818 *   4.00000    1.000000    
    131 Si    c    0.448961 *  0.583136 *  0.386140 *   4.00000    1.000000    
    132 Si    c    0.531075 *  0.583134 *  0.144801 *   4.00000    1.000000    
    133 Si    c    0.724065 *  0.692281 *  0.463321 *   4.00000    1.000000    
    134 Si    c    0.255943 *  0.692250 *  0.067638 *   4.00000    1.000000    
    135 Si    c    0.224063 *  0.942269 *  0.463334 *   4.00000    1.000000    
    136 Si    c    0.755942 *  0.942262 *  0.067651 *   4.00000    1.000000    
    137 Si    c    0.122905 *  0.629997 *  0.344483 *   4.00000    1.000000    
    138 Si    c    0.857118 *  0.629996 *  0.186478 *   4.00000    1.000000    
    139 Si    c    0.622904 *  0.879972 *  0.344475 *   4.00000    1.000000    
    140 Si    c    0.357116 *  0.880021 *  0.186470 *   4.00000    1.000000    
    141 O     c    0.259850 *  0.663169 *  0.352081 *   0.86902    1.000000    
    142 O     c    0.720268 *  0.663079 *  0.178768 *   0.86902    1.000000    
    143 O     c    0.759828 *  0.913165 *  0.352115 *   0.86902    1.000000    
    144 O     c    0.220244 *  0.913083 *  0.178805 *   0.86902    1.000000    
    145 O     c    0.187320 *  0.690880 *  0.316325 *   0.86902    1.000000    
    146 O     c    0.792706 *  0.690882 *  0.214632 *   0.86902    1.000000    
    147 O     c    0.687384 *  0.940824 *  0.316237 *   0.86902    1.000000    
    148 O     c    0.292765 *  0.940935 *  0.214549 *   0.86902    1.000000    
    149 O     c    0.312388 *  0.792606 *  0.226851 *   0.86902    1.000000    
    150 O     c    0.667566 *  0.792530 *  0.304122 *   0.86902    1.000000    
    151 O     c    0.812428 *  0.542566 *  0.226835 *   0.86902    1.000000    
    152 O     c    0.167608 *  0.542571 *  0.304105 *   0.86902    1.000000    
    153 O     c    0.100603 *  0.767816 *  0.021954 *   0.86902    1.000000    
    154 O     c    0.879413 *  0.767809 *  0.009013 *   0.86902    1.000000    
    155 O     c    0.600598 *  0.017815 *  0.021897 *   0.86902    1.000000    
    156 O     c    0.379413 *  0.017809 *  0.008952 *   0.86902    1.000000    
    157 O     c    0.258815 *  0.785654 *  0.066502 *   0.86902    1.000000    
    158 O     c    0.721191 *  0.785685 *  0.464412 *   0.86902    1.000000    
    159 O     c    0.758840 *  0.535671 *  0.066437 *   0.86902    1.000000    
    160 O     c    0.221217 *  0.535666 *  0.464347 *   0.86902    1.000000    
    161 O     c    0.056765 *  0.857191 *  0.303106 *   0.86902    1.000000    
    162 O     c    0.923250 *  0.857192 *  0.227867 *   0.86902    1.000000    
    163 O     c    0.556780 *  0.607198 *  0.303079 *   0.86902    1.000000    
    164 O     c    0.423265 *  0.607187 *  0.227841 *   0.86902    1.000000    
    165 O     c    0.238105 *  0.915971 *  0.024457 *   0.86902    1.000000    
    166 O     c    0.741903 *  0.915968 *  0.506525 *   0.86902    1.000000    
    167 O     c    0.738101 *  0.666014 *  0.024458 *   0.86902    1.000000    
    168 O     c    0.241898 *  0.665924 *  0.506529 *   0.86902    1.000000    
    169 O     c    0.990011 *  0.796338 *  0.265483 *   0.86902    1.000000    
    170 O     c    0.490016 *  0.546339 *  0.265472 *   0.86902    1.000000    
    171 O     c    0.872874 *  0.910088 *  0.461625 *   0.86902    1.000000    
    172 O     c    0.107128 *  0.910097 *  0.069366 *   0.86902    1.000000    
    173 O     c    0.372878 *  0.660088 *  0.461615 *   0.86902    1.000000    
    174 O     c    0.607134 *  0.660096 *  0.069354 *   0.86902    1.000000    
    175 O     c    0.831377 *  0.657030 *  0.294289 *   0.86902    1.000000    
    176 O     c    0.148630 *  0.657030 *  0.236688 *   0.86902    1.000000    
    177 O     c    0.331368 *  0.907039 *  0.294293 *   0.86902    1.000000    
    178 O     c    0.648622 *  0.907020 *  0.236692 *   0.86902    1.000000    
    179 O     c    0.990013 *  0.631421 *  0.015484 *   0.86902    1.000000    
    180 O     c    0.490019 *  0.881420 *  0.015490 *   0.86902    1.000000    
    181 Si    c    0.214088 *  0.729285 *  0.856496 *   4.00000    1.000000    
    182 Si    c    0.765941 *  0.729246 *  0.674441 *   4.00000    1.000000    
    183 Si    c    0.714101 *  0.979263 *  0.856459 *   4.00000    1.000000    
    184 Si    c    0.265955 *  0.979267 *  0.674404 *   4.00000    1.000000    
    185 Si    c    0.192998 *  0.867859 *  0.642768 *   4.00000    1.000000    
    186 Si    c    0.787022 *  0.867885 *  0.888186 *   4.00000    1.000000    
    187 Si    c    0.693012 *  0.617875 *  0.642738 *   4.00000    1.000000    
    188 Si    c    0.287036 *  0.617869 *  0.888156 *   4.00000    1.000000    
    189 Si    c    0.948949 *  0.833133 *  0.886156 *   4.00000    1.000000    
    190 Si    c    0.031063 *  0.833138 *  0.644817 *   4.00000    1.000000    
    191 Si    c    0.448961 *  0.583137 *  0.886140 *   4.00000    1.000000    
    192 Si    c    0.531075 *  0.583134 *  0.644801 *   4.00000    1.000000    
    193 Si    c    0.724066 *  0.692281 *  0.963320 *   4.00000    1.000000    
    194 Si    c    0.255944 *  0.692251 *  0.567638 *   4.00000    1.000000    
    195 Si    c    0.224061 *  0.942270 *  0.963337 *   4.00000    1.000000    
    196 Si    c    0.755941 *  0.942262 *  0.567652 *   4.00000    1.000000    
    197 Si    c    0.122906 *  0.629998 *  0.844483 *   4.00000    1.000000    
    198 Si    c    0.857118 *  0.629995 *  0.686478 *   4.00000    1.000000    
    199 Si    c    0.622904 *  0.879971 *  0.844474 *   4.00000    1.000000    
    200 Si    c    0.357116 *  0.880022 *  0.686471 *   4.00000    1.000000    
    201 O     c    0.259851 *  0.663168 *  0.852079 *   0.86902    1.000000    
    202 O     c    0.720269 *  0.663080 *  0.678767 *   0.86902    1.000000    
    203 O     c    0.759825 *  0.913165 *  0.852117 *   0.86902    1.000000    
    204 O     c    0.220242 *  0.913084 *  0.678806 *   0.86902    1.000000    
    205 O     c    0.187320 *  0.690881 *  0.816326 *   0.86902    1.000000    
    206 O     c    0.792705 *  0.690881 *  0.714633 *   0.86902    1.000000    
    207 O     c    0.687379 *  0.940826 *  0.816243 *   0.86902    1.000000    
    208 O     c    0.292762 *  0.940933 *  0.714552 *   0.86902    1.000000    
    209 O     c    0.312392 *  0.792605 *  0.726848 *   0.86902    1.000000    
    210 O     c    0.667568 *  0.792530 *  0.804120 *   0.86902    1.000000    
    211 O     c    0.812429 *  0.542565 *  0.726835 *   0.86902    1.000000    
    212 O     c    0.167609 *  0.542571 *  0.804104 *   0.86902    1.000000    
    213 O     c    0.100600 *  0.767816 *  0.521956 *   0.86902    1.000000    
    214 O     c    0.879415 *  0.767809 *  0.509013 *   0.86902    1.000000    
    215 O     c    0.600600 *  0.017815 *  0.521894 *   0.86902    1.000000    
    216 O     c    0.379412 *  0.017809 *  0.508954 *   0.86902    1.000000    
    217 O     c    0.258816 *  0.785654 *  0.566502 *   0.86902    1.000000    
    218 O     c    0.721193 *  0.785685 *  0.964411 *   0.86902    1.000000    
    219 O     c    0.758839 *  0.535672 *  0.566439 *   0.86902    1.000000    
    220 O     c    0.221216 *  0.535666 *  0.964348 *   0.86902    1.000000    
    221 O     c    0.056765 *  0.857190 *  0.803105 *   0.86902    1.000000    
    222 O     c    0.923250 *  0.857195 *  0.727867 *   0.86902    1.000000    
    223 O     c    0.556780 *  0.607199 *  0.803080 *   0.86902    1.000000    
    224 O     c    0.423265 *  0.607186 *  0.727841 *   0.86902    1.000000    
    225 O     c    0.238105 *  0.915970 *  0.524456 *   0.86902    1.000000    
    226 O     c    0.741902 *  0.915968 *  0.006526 *   0.86902    1.000000    
    227 O     c    0.738101 *  0.666014 *  0.524458 *   0.86902    1.000000    
    228 O     c    0.241898 *  0.665924 *  0.006528 *   0.86902    1.000000    
    229 O     c    0.990010 *  0.796339 *  0.765482 *   0.86902    1.000000    
    230 O     c    0.490017 *  0.546339 *  0.765472 *   0.86902    1.000000    
    231 O     c    0.872875 *  0.910088 *  0.961622 *   0.86902    1.000000    
    232 O     c    0.107130 *  0.910096 *  0.569362 *   0.86902    1.000000    
    233 O     c    0.372878 *  0.660088 *  0.961615 *   0.86902    1.000000    
    234 O     c    0.607134 *  0.660096 *  0.569354 *   0.86902    1.000000    
    235 O     c    0.831377 *  0.657030 *  0.794289 *   0.86902    1.000000    
    236 O     c    0.148630 *  0.657031 *  0.736689 *   0.86902    1.000000    
    237 O     c    0.331366 *  0.907039 *  0.794296 *   0.86902    1.000000    
    238 O     c    0.648621 *  0.907020 *  0.736692 *   0.86902    1.000000    
    239 O     c    0.990013 *  0.631421 *  0.515484 *   0.86902    1.000000    
    240 O     c    0.490020    0.881430    0.515495     0.86902    1.000000    
    241 O     s    0.259761 *  0.163080 *  0.352128 *  -2.86902    1.000000    
    242 O     s    0.720177 *  0.163169 *  0.178818 *  -2.86902    1.000000    
    243 O     s    0.759787 *  0.413084 *  0.352091 *  -2.86902    1.000000    
    244 O     s    0.220203 *  0.413165 *  0.178781 *  -2.86902    1.000000    
    245 O     s    0.187325 *  0.190882 *  0.316262 *  -2.86902    1.000000    
    246 O     s    0.792710 *  0.190878 *  0.214570 *  -2.86902    1.000000    
    247 O     s    0.687270 *  0.440934 *  0.316342 *  -2.86902    1.000000    
    248 O     s    0.292654 *  0.440827 *  0.214649 *  -2.86902    1.000000    
    249 O     s    0.312463 *  0.292531 *  0.226774 *  -2.86902    1.000000    
    250 O     s    0.667643 *  0.292605 *  0.304044 *  -2.86902    1.000000    
    251 O     s    0.812426 *  0.042570 *  0.226787 *  -2.86902    1.000000    
    252 O     s    0.167605 *  0.042566 *  0.304058 *  -2.86902    1.000000    
    253 O     s    0.100617 *  0.267810 *  0.021881 *  -2.86902    1.000000    
    254 O     s    0.879431 *  0.267814 *  0.008938 *  -2.86902    1.000000    
    255 O     s    0.600618 *  0.517810 *  0.021940 *  -2.86902    1.000000    
    256 O     s    0.379433 *  0.517815 *  0.008997 *  -2.86902    1.000000    
    257 O     s    0.258840 *  0.285685 *  0.066484 *  -2.86902    1.000000    
    258 O     s    0.721217 *  0.285653 *  0.464391 *  -2.86902    1.000000    
    259 O     s    0.758816 *  0.035666 *  0.066547 *  -2.86902    1.000000    
    260 O     s    0.221193 *  0.035672 *  0.464455 *  -2.86902    1.000000    
    261 O     s    0.056781 *  0.357193 *  0.303028 *  -2.86902    1.000000    
    262 O     s    0.923266 *  0.357191 *  0.227789 *  -2.86902    1.000000    
    263 O     s    0.556767 *  0.107184 *  0.303052 *  -2.86902    1.000000    
    264 O     s    0.423251 *  0.107201 *  0.227813 *  -2.86902    1.000000    
    265 O     s    0.238129 *  0.415968 *  0.024369 *  -2.86902    1.000000    
    266 O     s    0.741925 *  0.415970 *  0.506440 *  -2.86902    1.000000    
    267 O     s    0.738134 *  0.165923 *  0.024364 *  -2.86902    1.000000    
    268 O     s    0.241931 *  0.166016 *  0.506435 *  -2.86902    1.000000    
    269 O     s    0.990021 *  0.296339 *  0.265412 *  -2.86902    1.000000    
    270 O     s    0.490013 *  0.046338 *  0.265422 *  -2.86902    1.000000    
    271 O     s    0.872902 *  0.410095 *  0.461533 *  -2.86902    1.000000    
    272 O     s    0.107157 *  0.410088 *  0.069271 *  -2.86902    1.000000    
    273 O     s    0.372899 *  0.160096 *  0.461539 *  -2.86902    1.000000    
    274 O     s    0.607154 *  0.160087 *  0.069278 *  -2.86902    1.000000    
    275 O     s    0.831402 *  0.157030 *  0.294204 *  -2.86902    1.000000    
    276 O     s    0.148656 *  0.157029 *  0.236603 *  -2.86902    1.000000    
    277 O     s    0.331409 *  0.407021 *  0.294203 *  -2.86902    1.000000    
    278 O     s    0.648663 *  0.407039 *  0.236603 *  -2.86902    1.000000    
    279 O     s    0.990019 *  0.131422 *  0.015409 *  -2.86902    1.000000    
    280 O     s    0.490013 *  0.381421 *  0.015406 *  -2.86902    1.000000    
    281 O     s    0.259763 *  0.163080 *  0.852125 *  -2.86902    1.000000    
    282 O     s    0.720179 *  0.163169 *  0.678816 *  -2.86902    1.000000    
    283 O     s    0.759785 *  0.413084 *  0.852094 *  -2.86902    1.000000    
    284 O     s    0.220201 *  0.413165 *  0.678784 *  -2.86902    1.000000    
    285 O     s    0.187327 *  0.190882 *  0.816261 *  -2.86902    1.000000    
    286 O     s    0.792710 *  0.190878 *  0.714569 *  -2.86902    1.000000    
    287 O     s    0.687269 *  0.440934 *  0.816342 *  -2.86902    1.000000    
    288 O     s    0.292654 *  0.440826 *  0.714649 *  -2.86902    1.000000    
    289 O     s    0.312464 *  0.292531 *  0.726774 *  -2.86902    1.000000    
    290 O     s    0.667643 *  0.292605 *  0.804044 *  -2.86902    1.000000    
    291 O     s    0.812424 *  0.042570 *  0.726789 *  -2.86902    1.000000    
    292 O     s    0.167604 *  0.042566 *  0.804059 *  -2.86902    1.000000    
    293 O     s    0.100616 *  0.267810 *  0.521881 *  -2.86902    1.000000    
    294 O     s    0.879431 *  0.267814 *  0.508938 *  -2.86902    1.000000    
    295 O     s    0.600618 *  0.517809 *  0.521941 *  -2.86902    1.000000    
    296 O     s    0.379432 *  0.517814 *  0.508997 *  -2.86902    1.000000    
    297 O     s    0.258841 *  0.285685 *  0.566483 *  -2.86902    1.000000    
    298 O     s    0.721217 *  0.285653 *  0.964391 *  -2.86902    1.000000    
    299 O     s    0.758815 *  0.035666 *  0.566547 *  -2.86902    1.000000    
    300 O     s    0.221192 *  0.035673 *  0.964456 *  -2.86902    1.000000    
    301 O     s    0.056781 *  0.357192 *  0.803028 *  -2.86902    1.000000    
    302 O     s    0.923266 *  0.357193 *  0.727789 *  -2.86902    1.000000    
    303 O     s    0.556767 *  0.107185 *  0.803052 *  -2.86902    1.000000    
    304 O     s    0.423252 *  0.107199 *  0.727813 *  -2.86902    1.000000    
    305 O     s    0.238128 *  0.415968 *  0.524370 *  -2.86902    1.000000    
    306 O     s    0.741925 *  0.415969 *  0.006441 *  -2.86902    1.000000    
    307 O     s    0.738134 *  0.165923 *  0.524364 *  -2.86902    1.000000    
    308 O     s    0.241931 *  0.166016 *  0.006434 *  -2.86902    1.000000    
    309 O     s    0.990020 *  0.296338 *  0.765412 *  -2.86902    1.000000    
    310 O     s    0.490016 *  0.046338 *  0.765419 *  -2.86902    1.000000    
    311 O     s    0.872902 *  0.410095 *  0.961532 *  -2.86902    1.000000    
    312 O     s    0.107157 *  0.410089 *  0.569272 *  -2.86902    1.000000    
    313 O     s    0.372899 *  0.160096 *  0.961538 *  -2.86902    1.000000    
    314 O     s    0.607155 *  0.160087 *  0.569276 *  -2.86902    1.000000    
    315 O     s    0.831402 *  0.157030 *  0.794204 *  -2.86902    1.000000    
    316 O     s    0.148656 *  0.157030 *  0.736603 *  -2.86902    1.000000    
    317 O     s    0.331409 *  0.407021 *  0.794203 *  -2.86902    1.000000    
    318 O     s    0.648663 *  0.407039 *  0.736603 *  -2.86902    1.000000    
    319 O     s    0.990019 *  0.131420 *  0.515409 *  -2.86902    1.000000    
    320 O     s    0.490013 *  0.381422 *  0.515405 *  -2.86902    1.000000    
    321 O     s    0.259850 *  0.663169 *  0.352081 *  -2.86902    1.000000    
    322 O     s    0.720268 *  0.663079 *  0.178768 *  -2.86902    1.000000    
    323 O     s    0.759828 *  0.913165 *  0.352115 *  -2.86902    1.000000    
    324 O     s    0.220244 *  0.913083 *  0.178805 *  -2.86902    1.000000    
    325 O     s    0.187320 *  0.690880 *  0.316325 *  -2.86902    1.000000    
    326 O     s    0.792706 *  0.690882 *  0.214632 *  -2.86902    1.000000    
    327 O     s    0.687384 *  0.940824 *  0.316237 *  -2.86902    1.000000    
    328 O     s    0.292765 *  0.940935 *  0.214549 *  -2.86902    1.000000    
    329 O     s    0.312388 *  0.792606 *  0.226851 *  -2.86902    1.000000    
    330 O     s    0.667566 *  0.792530 *  0.304122 *  -2.86902    1.000000    
    331 O     s    0.812428 *  0.542566 *  0.226835 *  -2.86902    1.000000    
    332 O     s    0.167608 *  0.542571 *  0.304105 *  -2.86902    1.000000    
    333 O     s    0.100603 *  0.767816 *  0.021954 *  -2.86902    1.000000    
    334 O     s    0.879413 *  0.767809 *  0.009013 *  -2.86902    1.000000    
    335 O     s    0.600598 *  0.017815 *  0.021897 *  -2.86902    1.000000    
    336 O     s    0.379413 *  0.017809 *  0.008952 *  -2.86902    1.000000    
    337 O     s    0.258815 *  0.785654 *  0.066502 *  -2.86902    1.000000    
    338 O     s    0.721191 *  0.785685 *  0.464412 *  -2.86902    1.000000    
    339 O     s    0.758840 *  0.535671 *  0.066437 *  -2.86902    1.000000    
    340 O     s    0.221217 *  0.535666 *  0.464347 *  -2.86902    1.000000    
    341 O     s    0.056765 *  0.857191 *  0.303106 *  -2.86902    1.000000    
    342 O     s    0.923250 *  0.857192 *  0.227867 *  -2.86902    1.000000    
    343 O     s    0.556780 *  0.607198 *  0.303079 *  -2.86902    1.000000    
    344 O     s    0.423265 *  0.607187 *  0.227841 *  -2.86902    1.000000    
    345 O     s    0.238105 *  0.915971 *  0.024457 *  -2.86902    1.000000    
    346 O     s    0.741903 *  0.915968 *  0.506525 *  -2.86902    1.000000    
    347 O     s    0.738101 *  0.666014 *  0.024458 *  -2.86902    1.000000    
    348 O     s    0.241898 *  0.665924 *  0.506529 *  -2.86902    1.000000    
    349 O     s    0.990011 *  0.796338 *  0.265483 *  -2.86902    1.000000    
    350 O     s    0.490016 *  0.546339 *  0.265472 *  -2.86902    1.000000    
    351 O     s    0.872874 *  0.910088 *  0.461625 *  -2.86902    1.000000    
    352 O     s    0.107128 *  0.910097 *  0.069366 *  -2.86902    1.000000    
    353 O     s    0.372878 *  0.660088 *  0.461615 *  -2.86902    1.000000    
    354 O     s    0.607134 *  0.660096 *  0.069354 *  -2.86902    1.000000    
    355 O     s    0.831377 *  0.657030 *  0.294289 *  -2.86902    1.000000    
    356 O     s    0.148630 *  0.657030 *  0.236688 *  -2.86902    1.000000    
    357 O     s    0.331368 *  0.907039 *  0.294293 *  -2.86902    1.000000    
    358 O     s    0.648622 *  0.907020 *  0.236692 *  -2.86902    1.000000    
    359 O     s    0.990013 *  0.631421 *  0.015484 *  -2.86902    1.000000    
    360 O     s    0.490019 *  0.881420 *  0.015490 *  -2.86902    1.000000    
    361 O     s    0.259851 *  0.663168 *  0.852079 *  -2.86902    1.000000    
    362 O     s    0.720269 *  0.663080 *  0.678767 *  -2.86902    1.000000    
    363 O     s    0.759825 *  0.913165 *  0.852117 *  -2.86902    1.000000    
    364 O     s    0.220242 *  0.913084 *  0.678806 *  -2.86902    1.000000    
    365 O     s    0.187320 *  0.690881 *  0.816326 *  -2.86902    1.000000    
    366 O     s    0.792705 *  0.690881 *  0.714633 *  -2.86902    1.000000    
    367 O     s    0.687379 *  0.940826 *  0.816243 *  -2.86902    1.000000    
    368 O     s    0.292762 *  0.940933 *  0.714552 *  -2.86902    1.000000    
    369 O     s    0.312392 *  0.792605 *  0.726848 *  -2.86902    1.000000    
    370 O     s    0.667568 *  0.792530 *  0.804120 *  -2.86902    1.000000    
    371 O     s    0.812429 *  0.542565 *  0.726835 *  -2.86902    1.000000    
    372 O     s    0.167609 *  0.542571 *  0.804104 *  -2.86902    1.000000    
    373 O     s    0.100600 *  0.767816 *  0.521956 *  -2.86902    1.000000    
    374 O     s    0.879415 *  0.767809 *  0.509013 *  -2.86902    1.000000    
    375 O     s    0.600600 *  0.017815 *  0.521894 *  -2.86902    1.000000    
    376 O     s    0.379412 *  0.017809 *  0.508954 *  -2.86902    1.000000    
    377 O     s    0.258816 *  0.785654 *  0.566502 *  -2.86902    1.000000    
    378 O     s    0.721193 *  0.785685 *  0.964411 *  -2.86902    1.000000    
    379 O     s    0.758839 *  0.535672 *  0.566439 *  -2.86902    1.000000    
    380 O     s    0.221216 *  0.535666 *  0.964348 *  -2.86902    1.000000    
    381 O     s    0.056765 *  0.857190 *  0.803105 *  -2.86902    1.000000    
    382 O     s    0.923250 *  0.857195 *  0.727867 *  -2.86902    1.000000    
    383 O     s    0.556780 *  0.607199 *  0.803080 *  -2.86902    1.000000    
    384 O     s    0.423265 *  0.607186 *  0.727841 *  -2.86902    1.000000    
    385 O     s    0.238105 *  0.915970 *  0.524456 *  -2.86902    1.000000    
    386 O     s    0.741902 *  0.915968 *  0.006526 *  -2.86902    1.000000    
    387 O     s    0.738101 *  0.666014 *  0.524458 *  -2.86902    1.000000    
    388 O     s    0.241898 *  0.665924 *  0.006528 *  -2.86902    1.000000    
    389 O     s    0.990010 *  0.796339 *  0.765482 *  -2.86902    1.000000    
    390 O     s    0.490017 *  0.546339 *  0.765472 *  -2.86902    1.000000    
    391 O     s    0.872875 *  0.910088 *  0.961622 *  -2.86902    1.000000    
    392 O     s    0.107130 *  0.910096 *  0.569362 *  -2.86902    1.000000    
    393 O     s    0.372878 *  0.660088 *  0.961615 *  -2.86902    1.000000    
    394 O     s    0.607134 *  0.660096 *  0.569354 *  -2.86902    1.000000    
    395 O     s    0.831377 *  0.657030 *  0.794289 *  -2.86902    1.000000    
    396 O     s    0.148630 *  0.657031 *  0.736689 *  -2.86902    1.000000    
    397 O     s    0.331366 *  0.907039 *  0.794296 *  -2.86902    1.000000    
    398 O     s    0.648621 *  0.907020 *  0.736692 *  -2.86902    1.000000    
    399 O     s    0.990013 *  0.631421 *  0.515484 *  -2.86902    1.000000    
    400 O     s    0.490020 *  0.881430 *  0.515495 *  -2.86902    1.000000    
--------------------------------------------------------------------------------



********************************************************************************
*  General input information                                                   *
********************************************************************************

  Species output for all configurations : 

--------------------------------------------------------------------------------
  Species    Type    Atomic    Atomic    Charge       Radii (Angs)     Library
                     Number     Mass       (e)     Cova   Ionic  VDW   Symbol
--------------------------------------------------------------------------------
    O        Core        8      16.00   0.869020   0.730  0.000  1.360 O        
    O        Shell       8       0.00  -2.869020   0.730  0.000  0.000 O        
    Si       Core       14      28.09   4.000000   1.200  0.000  2.100 Si       
--------------------------------------------------------------------------------


  Lattice summation method               =    Ewald          (3-D)
                                         =    Parry          (2-D)
                                         =    Saunders et al (1-D)
  Accuracy factor for lattice sums       =   12.000


  Analytic derivatives to be used

  Time limit = Infinity

  Maximum range for interatomic potentials =    100000.000000 Angstroms

  General interatomic potentials :

--------------------------------------------------------------------------------
Atom  Types   Potential      Parameter       Value         Units   Cutoffs(Ang)
  1     2                                                            Min /  Max 
--------------------------------------------------------------------------------
Si   c O    s Buckingham    Buckingham A     1283.9070    eV        0.000 10.000
                            Buckingham rho  0.32052000    Ang       
                            Buckingham C     10.661580    eV*Ang^6  
--------------------------------------------------------------------------------
O    s O    s Buckingham    Buckingham A     22764.000    eV        0.000 12.000
                            Buckingham rho  0.14900000    Ang       
                            Buckingham C     27.879000    eV*Ang^6  
--------------------------------------------------------------------------------
O    c O    s Spring (c-s)  Spring k 2       74.920000    eV*Ang^-2 0.000  1.100
                            Spring k 4       0.0000000    eV*Ang^-4 
--------------------------------------------------------------------------------

  General Three-body potentials :

--------------------------------------------------------------------------------
  Atoms       Potential      Parameter       Value         Units   Cutoffs(Ang)
  1 / 2 / 3                                                          Min /  Max 
--------------------------------------------------------------------------------
Si    core    Harmonic      Three-body cnst  2.0972400    eV*rad^-2 0.000  1.900
O     shel                  Three-body angl  109.47000    degrees   0.000  1.900
O     shel                  Three-body k4    0.0000000    eV*rad^-4 0.000  3.500
                            Three-body k3    0.0000000    eV*rad^-3 
--------------------------------------------------------------------------------
Si    core    Harmonic      Three-body cnst  2.0972400    eV*rad^-2 0.000  1.900
O     shel                  Three-body angl  109.47000    degrees   0.000  1.900
õ(    shel                  Three-body k4    0.0000000    eV*rad^-4 0.000  3.500
                            Three-body k3    0.0000000    eV*rad^-3 
--------------------------------------------------------------------------------
Si    core    Harmonic      Three-body cnst  2.0972400    eV*rad^-2 0.000  1.900
õ(    shel                  Three-body angl  109.47000    degrees   0.000  1.900
õ(    shel                  Three-body k4    0.0000000    eV*rad^-4 0.000  3.500
                            Three-body k3    0.0000000    eV*rad^-3 
--------------------------------------------------------------------------------

********************************************************************************
*  Output for configuration   1 : ReferenceDataBase/8049967_122                *
********************************************************************************


  Components of energy : 

--------------------------------------------------------------------------------
  Interatomic potentials     =        2537.77256277 eV    
  Three-body potentials      =           0.52156282 eV    
  Monopole - monopole (real) =       -9838.03232580 eV    
  Monopole - monopole (recip)=       -2886.03341826 eV    
  Monopole - monopole (total)=      -12724.06574407 eV    
--------------------------------------------------------------------------------
  Total lattice energy       =      -10185.77161848 eV    
--------------------------------------------------------------------------------
  Total lattice energy       =         -982771.2574 kJ/(mole unit cells)
--------------------------------------------------------------------------------


  Number of variables =     1203

  Maximum number of calculations  =           500
  Maximum Hessian update interval =            10
  Maximum step size               =   0.100000000
  Maximum parameter tolerance     =   0.000010000
  Maximum function  tolerance     =   0.000010000
  Maximum gradient  tolerance     =   0.001000000
  Maximum gradient  component     =   0.010000000

  Cell parameters to be optimised using strains

  Newton-Raphson optimiser to be used

  BFGS hessian update to be used

  General 2-D hessian to be used

  Minimiser to switch to RFO
  When gradient norm is less than     0.080000

  Switch max step size to       0.30000000 when gnorm is less than     0.005000

  Dumpfile to be written after every cycle

  Start of bulk optimisation :

  Cycle:      0 Energy:    -10185.771618  Gnorm:      3.466143  CPU:    0.355
  ** Hessian calculated **
  Cycle:      1 Energy:    -10213.917932  Gnorm:      2.942891  CPU:    0.878
  ** Hessian calculated **
  Cycle:      2 Energy:    -10256.723613  Gnorm:      1.123073  CPU:    1.396
  ** Hessian calculated **
  Cycle:      3 Energy:    -10264.471695  Gnorm:      0.810564  CPU:    1.960
  Cycle:      4 Energy:    -10271.302602  Gnorm:      0.527460  CPU:    2.309
  Cycle:      5 Energy:    -10278.331438  Gnorm:      0.352268  CPU:    2.754
  Cycle:      6 Energy:    -10281.397565  Gnorm:      0.330213  CPU:    3.006
  Cycle:      7 Energy:    -10283.118058  Gnorm:      0.166812  CPU:    3.259
  Cycle:      8 Energy:    -10283.883670  Gnorm:      0.133015  CPU:    3.517
  Cycle:      9 Energy:    -10284.361261  Gnorm:      0.113432  CPU:    3.770
  Cycle:     10 Energy:    -10284.596949  Gnorm:      0.067126  CPU:    4.023
  ** Hessian has required structure
  Cycle:     11 Energy:    -10284.674865  Gnorm:      0.101364  CPU:    4.324
  ** Hessian has required structure
  Cycle:     12 Energy:    -10284.808842  Gnorm:      0.098006  CPU:    4.669
  ** Hessian has wrong structure
  ** Imaginary eigenvectors =   3
  ** Hessian has wrong structure
  ** Imaginary eigenvectors =   3
  Cycle:     13 Energy:    -10285.065696  Gnorm:      0.081812  CPU:    5.785
  ** Hessian has wrong structure
  ** Imaginary eigenvectors =   3
  ** Hessian has wrong structure
  ** Imaginary eigenvectors =   3
  Cycle:     14 Energy:    -10285.439476  Gnorm:      0.049132  CPU:    6.667
  ** Hessian has wrong structure
  ** Imaginary eigenvectors =   3
  ** Hessian has required structure
  Cycle:     15 Energy:    -10285.598353  Gnorm:      0.024494  CPU:    7.839
  ** Hessian has required structure
  Cycle:     16 Energy:    -10285.637815  Gnorm:      0.012209  CPU:    8.237
  ** Hessian has required structure
  Cycle:     17 Energy:    -10285.646081  Gnorm:      0.007317  CPU:    8.587
  ** Hessian has required structure
  Cycle:     18 Energy:    -10285.649414  Gnorm:      0.003653  CPU:    8.985
  ** Hessian has required structure
  Cycle:     19 Energy:    -10285.650103  Gnorm:      0.001869  CPU:    9.336
  ** Hessian has required structure
  Cycle:     20 Energy:    -10285.650269  Gnorm:      0.001478  CPU:    9.639
  ** Hessian has required structure
  Cycle:     21 Energy:    -10285.650402  Gnorm:      0.000826  CPU:   10.045
  ** Hessian has required structure
  Cycle:     22 Energy:    -10285.650465  Gnorm:      0.000055  CPU:   10.409
  ** Hessian has required structure


  **** Optimisation achieved ****


  Final energy =  -10285.65046606 eV      
  Final Gnorm  =       0.00001965

  Components of energy : 

--------------------------------------------------------------------------------
  Interatomic potentials     =        2784.79126951 eV    
  Three-body potentials      =           1.24916959 eV    
  Monopole - monopole (real) =       -8986.25776475 eV    
  Monopole - monopole (recip)=       -4085.43314040 eV    
  Monopole - monopole (total)=      -13071.69090516 eV    
--------------------------------------------------------------------------------
  Total lattice energy       =      -10285.65046606 eV    
--------------------------------------------------------------------------------
  Total lattice energy       =         -992408.0394 kJ/(mole unit cells)
--------------------------------------------------------------------------------

  Final fractional coordinates of atoms :

--------------------------------------------------------------------------------
   No.  Atomic        x           y          z          Radius
        Label       (Frac)      (Frac)     (Frac)       (Angs) 
--------------------------------------------------------------------------------
     1  Si    c     0.214007    0.229410    0.356622    0.000000
     2  Si    c     0.766038    0.229416    0.174332    0.000000
     3  Si    c     0.714003    0.479411    0.356626    0.000000
     4  Si    c     0.266034    0.479416    0.174336    0.000000
     5  Si    c     0.193031    0.368033    0.142730    0.000000
     6  Si    c     0.787007    0.368030    0.388229    0.000000
     7  Si    c     0.693030    0.118029    0.142737    0.000000
     8  Si    c     0.287006    0.118034    0.388237    0.000000
     9  Si    c     0.948977    0.333319    0.386130    0.000000
    10  Si    c     0.031065    0.333319    0.144817    0.000000
    11  Si    c     0.448974    0.083319    0.386143    0.000000
    12  Si    c     0.531062    0.083319    0.144830    0.000000
    13  Si    c     0.724127    0.192406    0.463259    0.000000
    14  Si    c     0.255912    0.192410    0.067713    0.000000
    15  Si    c     0.224131    0.442405    0.463244    0.000000
    16  Si    c     0.755916    0.442411    0.067698    0.000000
    17  Si    c     0.122909    0.130107    0.344495    0.000000
    18  Si    c     0.857130    0.130116    0.186470    0.000000
    19  Si    c     0.622911    0.380115    0.344486    0.000000
    20  Si    c     0.357132    0.380108    0.186461    0.000000
    21  O     c     0.259722    0.163288    0.352272    0.000000
    22  O     c     0.720314    0.163286    0.178703    0.000000
    23  O     c     0.759712    0.413274    0.352271    0.000000
    24  O     c     0.220304    0.413301    0.178702    0.000000
    25  O     c     0.187245    0.191013    0.316444    0.000000
    26  O     c     0.792814    0.191031    0.214496    0.000000
    27  O     c     0.687229    0.441029    0.316457    0.000000
    28  O     c     0.292798    0.441014    0.214509    0.000000
    29  O     c     0.312332    0.292708    0.226967    0.000000
    30  O     c     0.667717    0.292718    0.303980    0.000000
    31  O     c     0.812321    0.042720    0.226979    0.000000
    32  O     c     0.167706    0.042707    0.303993    0.000000
    33  O     c     0.100526    0.267967    0.022044    0.000000
    34  O     c     0.879513    0.267966    0.008904    0.000000
    35  O     c     0.600530    0.517965    0.022049    0.000000
    36  O     c     0.379516    0.517966    0.008909    0.000000
    37  O     c     0.258781    0.285809    0.066596    0.000000
    38  O     c     0.721258    0.285805    0.464385    0.000000
    39  O     c     0.758777    0.035804    0.066597    0.000000
    40  O     c     0.221255    0.035810    0.464386    0.000000
    41  O     c     0.056796    0.357409    0.303061    0.000000
    42  O     c     0.923243    0.357412    0.227890    0.000000
    43  O     c     0.556794    0.107410    0.303072    0.000000
    44  O     c     0.423242    0.107411    0.227902    0.000000
    45  O     c     0.238174    0.416087    0.024357    0.000000
    46  O     c     0.741874    0.416103    0.506582    0.000000
    47  O     c     0.738171    0.166089    0.024370    0.000000
    48  O     c     0.241871    0.166101    0.506596    0.000000
    49  O     c     0.990020    0.296541    0.265474    0.000000
    50  O     c     0.490019    0.046541    0.265486    0.000000
    51  O     c     0.872847    0.410249    0.461684    0.000000
    52  O     c     0.107199    0.410247    0.069257    0.000000
    53  O     c     0.372843    0.160248    0.461699    0.000000
    54  O     c     0.607195    0.160248    0.069272    0.000000
    55  O     c     0.831428    0.157180    0.294228    0.000000
    56  O     c     0.148608    0.157177    0.236741    0.000000
    57  O     c     0.331435    0.407178    0.294213    0.000000
    58  O     c     0.648614    0.407180    0.236727    0.000000
    59  O     c     0.990021    0.131430    0.015485    0.000000
    60  O     c     0.490020    0.381430    0.015470    0.000000
    61  Si    c     0.214007    0.229411    0.856622    0.000000
    62  Si    c     0.766038    0.229416    0.674332    0.000000
    63  Si    c     0.714003    0.479410    0.856626    0.000000
    64  Si    c     0.266034    0.479416    0.674336    0.000000
    65  Si    c     0.193031    0.368033    0.642729    0.000000
    66  Si    c     0.787007    0.368030    0.888229    0.000000
    67  Si    c     0.693030    0.118029    0.642738    0.000000
    68  Si    c     0.287006    0.118034    0.888237    0.000000
    69  Si    c     0.948977    0.333319    0.886130    0.000000
    70  Si    c     0.031065    0.333319    0.644817    0.000000
    71  Si    c     0.448974    0.083319    0.886143    0.000000
    72  Si    c     0.531062    0.083320    0.644829    0.000000
    73  Si    c     0.724127    0.192406    0.963259    0.000000
    74  Si    c     0.255912    0.192410    0.567713    0.000000
    75  Si    c     0.224131    0.442405    0.963244    0.000000
    76  Si    c     0.755916    0.442411    0.567698    0.000000
    77  Si    c     0.122909    0.130107    0.844494    0.000000
    78  Si    c     0.857130    0.130116    0.686470    0.000000
    79  Si    c     0.622911    0.380115    0.844486    0.000000
    80  Si    c     0.357132    0.380108    0.686462    0.000000
    81  O     c     0.259721    0.163289    0.852274    0.000000
    82  O     c     0.720313    0.163286    0.678704    0.000000
    83  O     c     0.759714    0.413273    0.852270    0.000000
    84  O     c     0.220306    0.413301    0.678700    0.000000
    85  O     c     0.187245    0.191013    0.816444    0.000000
    86  O     c     0.792815    0.191031    0.714496    0.000000
    87  O     c     0.687229    0.441029    0.816458    0.000000
    88  O     c     0.292798    0.441014    0.714509    0.000000
    89  O     c     0.312332    0.292708    0.726967    0.000000
    90  O     c     0.667717    0.292718    0.803980    0.000000
    91  O     c     0.812320    0.042720    0.726980    0.000000
    92  O     c     0.167706    0.042706    0.803993    0.000000
    93  O     c     0.100527    0.267966    0.522044    0.000000
    94  O     c     0.879513    0.267965    0.508904    0.000000
    95  O     c     0.600529    0.517966    0.522049    0.000000
    96  O     c     0.379516    0.517967    0.508909    0.000000
    97  O     c     0.258780    0.285809    0.566596    0.000000
    98  O     c     0.721258    0.285805    0.964385    0.000000
    99  O     c     0.758778    0.035804    0.566596    0.000000
   100  O     c     0.221255    0.035810    0.964386    0.000000
   101  O     c     0.056796    0.357410    0.803061    0.000000
   102  O     c     0.923243    0.357411    0.727890    0.000000
   103  O     c     0.556794    0.107409    0.803072    0.000000
   104  O     c     0.423241    0.107412    0.727902    0.000000
   105  O     c     0.238174    0.416087    0.524357    0.000000
   106  O     c     0.741874    0.416103    0.006582    0.000000
   107  O     c     0.738171    0.166089    0.524371    0.000000
   108  O     c     0.241870    0.166101    0.006596    0.000000
   109  O     c     0.990020    0.296541    0.765474    0.000000
   110  O     c     0.490018    0.046541    0.765486    0.000000
   111  O     c     0.872847    0.410249    0.961684    0.000000
   112  O     c     0.107200    0.410247    0.569258    0.000000
   113  O     c     0.372843    0.160248    0.961698    0.000000
   114  O     c     0.607195    0.160248    0.569272    0.000000
   115  O     c     0.831428    0.157180    0.794228    0.000000
   116  O     c     0.148608    0.157177    0.736741    0.000000
   117  O     c     0.331435    0.407177    0.794213    0.000000
   118  O     c     0.648614    0.407180    0.736727    0.000000
   119  O     c     0.990021    0.131430    0.515485    0.000000
   120  O     c     0.490020    0.381430    0.515470    0.000000
   121  Si    c     0.214002    0.729416    0.356633    0.000000
   122  Si    c     0.766033    0.729411    0.174343    0.000000
   123  Si    c     0.714006    0.979416    0.356629    0.000000
   124  Si    c     0.266037    0.979410    0.174339    0.000000
   125  Si    c     0.193033    0.868030    0.142737    0.000000
   126  Si    c     0.787009    0.868033    0.388236    0.000000
   127  Si    c     0.693034    0.618034    0.142728    0.000000
   128  Si    c     0.287010    0.618029    0.388227    0.000000
   129  Si    c     0.948975    0.833319    0.386148    0.000000
   130  Si    c     0.031063    0.833319    0.144835    0.000000
   131  Si    c     0.448978    0.583320    0.386136    0.000000
   132  Si    c     0.531066    0.583319    0.144822    0.000000
   133  Si    c     0.724128    0.692410    0.463252    0.000000
   134  Si    c     0.255913    0.692406    0.067706    0.000000
   135  Si    c     0.224124    0.942411    0.463267    0.000000
   136  Si    c     0.755909    0.942405    0.067721    0.000000
   137  Si    c     0.122910    0.630116    0.344495    0.000000
   138  Si    c     0.857131    0.630107    0.186471    0.000000
   139  Si    c     0.622908    0.880108    0.344504    0.000000
   140  Si    c     0.357129    0.880115    0.186479    0.000000
   141  O     c     0.259727    0.663286    0.352261    0.000000
   142  O     c     0.720319    0.663288    0.178691    0.000000
   143  O     c     0.759734    0.913301    0.352265    0.000000
   144  O     c     0.220326    0.913273    0.178696    0.000000
   145  O     c     0.187225    0.691031    0.316470    0.000000
   146  O     c     0.792795    0.691012    0.214521    0.000000
   147  O     c     0.687243    0.941014    0.316455    0.000000
   148  O     c     0.292812    0.941030    0.214507    0.000000
   149  O     c     0.312323    0.792718    0.226985    0.000000
   150  O     c     0.667708    0.792708    0.303999    0.000000
   151  O     c     0.812334    0.542706    0.226972    0.000000
   152  O     c     0.167720    0.542720    0.303986    0.000000
   153  O     c     0.100527    0.767966    0.022061    0.000000
   154  O     c     0.879514    0.767966    0.008922    0.000000
   155  O     c     0.600524    0.017966    0.022056    0.000000
   156  O     c     0.379510    0.017965    0.008916    0.000000
   157  O     c     0.258782    0.785805    0.066580    0.000000
   158  O     c     0.721260    0.785809    0.464369    0.000000
   159  O     c     0.758785    0.535810    0.066579    0.000000
   160  O     c     0.221262    0.535804    0.464369    0.000000
   161  O     c     0.056796    0.857411    0.303075    0.000000
   162  O     c     0.923244    0.857410    0.227905    0.000000
   163  O     c     0.556799    0.607412    0.303063    0.000000
   164  O     c     0.423246    0.607409    0.227893    0.000000
   165  O     c     0.238166    0.916103    0.024384    0.000000
   166  O     c     0.741865    0.916087    0.506609    0.000000
   167  O     c     0.738170    0.666101    0.024369    0.000000
   168  O     c     0.241869    0.666089    0.506594    0.000000
   169  O     c     0.990020    0.796541    0.265491    0.000000
   170  O     c     0.490022    0.546541    0.265479    0.000000
   171  O     c     0.872840    0.910247    0.461708    0.000000
   172  O     c     0.107193    0.910249    0.069282    0.000000
   173  O     c     0.372845    0.660248    0.461693    0.000000
   174  O     c     0.607197    0.660248    0.069267    0.000000
   175  O     c     0.831432    0.657177    0.294224    0.000000
   176  O     c     0.148612    0.657180    0.236737    0.000000
   177  O     c     0.331426    0.907180    0.294238    0.000000
   178  O     c     0.648605    0.907177    0.236752    0.000000
   179  O     c     0.990019    0.631430    0.015480    0.000000
   180  O     c     0.490020    0.881430    0.015495    0.000000
   181  Si    c     0.214002    0.729416    0.856633    0.000000
   182  Si    c     0.766033    0.729410    0.674343    0.000000
   183  Si    c     0.714006    0.979416    0.856629    0.000000
   184  Si    c     0.266037    0.979411    0.674339    0.000000
   185  Si    c     0.193033    0.868030    0.642736    0.000000
   186  Si    c     0.787009    0.868033    0.888236    0.000000
   187  Si    c     0.693034    0.618034    0.642728    0.000000
   188  Si    c     0.287010    0.618029    0.888228    0.000000
   189  Si    c     0.948975    0.833319    0.886149    0.000000
   190  Si    c     0.031063    0.833319    0.644835    0.000000
   191  Si    c     0.448978    0.583319    0.886135    0.000000
   192  Si    c     0.531066    0.583319    0.644822    0.000000
   193  Si    c     0.724128    0.692410    0.963252    0.000000
   194  Si    c     0.255913    0.692406    0.567706    0.000000
   195  Si    c     0.224124    0.942411    0.963267    0.000000
   196  Si    c     0.755909    0.942405    0.567721    0.000000
   197  Si    c     0.122910    0.630116    0.844495    0.000000
   198  Si    c     0.857131    0.630107    0.686471    0.000000
   199  Si    c     0.622908    0.880108    0.844504    0.000000
   200  Si    c     0.357129    0.880115    0.686479    0.000000
   201  O     c     0.259726    0.663286    0.852263    0.000000
   202  O     c     0.720318    0.663288    0.678693    0.000000
   203  O     c     0.759736    0.913301    0.852263    0.000000
   204  O     c     0.220328    0.913274    0.678694    0.000000
   205  O     c     0.187226    0.691031    0.816469    0.000000
   206  O     c     0.792795    0.691012    0.714521    0.000000
   207  O     c     0.687242    0.941014    0.816456    0.000000
   208  O     c     0.292811    0.941029    0.714508    0.000000
   209  O     c     0.312323    0.792718    0.726985    0.000000
   210  O     c     0.667708    0.792708    0.803998    0.000000
   211  O     c     0.812334    0.542706    0.726972    0.000000
   212  O     c     0.167719    0.542720    0.803986    0.000000
   213  O     c     0.100527    0.767965    0.522062    0.000000
   214  O     c     0.879513    0.767966    0.508921    0.000000
   215  O     c     0.600524    0.017967    0.522056    0.000000
   216  O     c     0.379511    0.017966    0.508916    0.000000
   217  O     c     0.258782    0.785805    0.566580    0.000000
   218  O     c     0.721259    0.785809    0.964370    0.000000
   219  O     c     0.758785    0.535810    0.566579    0.000000
   220  O     c     0.221263    0.535804    0.964368    0.000000
   221  O     c     0.056797    0.857412    0.803075    0.000000
   222  O     c     0.923244    0.857409    0.727905    0.000000
   223  O     c     0.556798    0.607411    0.803063    0.000000
   224  O     c     0.423246    0.607410    0.727893    0.000000
   225  O     c     0.238166    0.916103    0.524383    0.000000
   226  O     c     0.741866    0.916087    0.006608    0.000000
   227  O     c     0.738169    0.666101    0.524370    0.000000
   228  O     c     0.241869    0.666089    0.006595    0.000000
   229  O     c     0.990020    0.796541    0.765491    0.000000
   230  O     c     0.490021    0.546541    0.765479    0.000000
   231  O     c     0.872840    0.910247    0.961708    0.000000
   232  O     c     0.107193    0.910249    0.569282    0.000000
   233  O     c     0.372845    0.660248    0.961693    0.000000
   234  O     c     0.607197    0.660248    0.569267    0.000000
   235  O     c     0.831432    0.657178    0.794224    0.000000
   236  O     c     0.148612    0.657180    0.736737    0.000000
   237  O     c     0.331426    0.907180    0.794239    0.000000
   238  O     c     0.648605    0.907178    0.736752    0.000000
   239  O     c     0.990019    0.631430    0.515480    0.000000
   240  O     c     0.490020    0.881430    0.515495    0.000000
   241  O     s     0.257589    0.165632    0.357143    0.000000
   242  O     s     0.722449    0.165630    0.173829    0.000000
   243  O     s     0.757581    0.415620    0.357142    0.000000
   244  O     s     0.222441    0.415642    0.173828    0.000000
   245  O     s     0.183095    0.188578    0.324251    0.000000
   246  O     s     0.796960    0.188593    0.206693    0.000000
   247  O     s     0.683082    0.438591    0.324260    0.000000
   248  O     s     0.296948    0.438579    0.206703    0.000000
   249  O     s     0.306229    0.295425    0.237126    0.000000
   250  O     s     0.673819    0.295434    0.293822    0.000000
   251  O     s     0.806220    0.045435    0.237138    0.000000
   252  O     s     0.173810    0.045423    0.293833    0.000000
   253  O     s     0.105293    0.271288    0.017628    0.000000
   254  O     s     0.874747    0.271288    0.013320    0.000000
   255  O     s     0.605296    0.521287    0.017634    0.000000
   256  O     s     0.374748    0.521288    0.013325    0.000000
   257  O     s     0.251005    0.284297    0.075326    0.000000
   258  O     s     0.729034    0.284294    0.455651    0.000000
   259  O     s     0.751002    0.034292    0.075329    0.000000
   260  O     s     0.229030    0.034299    0.455654    0.000000
   261  O     s     0.059524    0.355814    0.294834    0.000000
   262  O     s     0.920516    0.355816    0.236117    0.000000
   263  O     s     0.559522    0.105815    0.294846    0.000000
   264  O     s     0.420514    0.105816    0.236128    0.000000
   265  O     s     0.231490    0.413689    0.030834    0.000000
   266  O     s     0.748557    0.413701    0.500109    0.000000
   267  O     s     0.731487    0.163690    0.030846    0.000000
   268  O     s     0.248554    0.163700    0.500121    0.000000
   269  O     s     0.990020    0.304328    0.265474    0.000000
   270  O     s     0.490019    0.054328    0.265486    0.000000
   271  O     s     0.868377    0.405393    0.465017    0.000000
   272  O     s     0.111669    0.405391    0.065925    0.000000
   273  O     s     0.368373    0.155392    0.465032    0.000000
   274  O     s     0.611665    0.155391    0.065939    0.000000
   275  O     s     0.822695    0.158025    0.300767    0.000000
   276  O     s     0.157342    0.158023    0.230202    0.000000
   277  O     s     0.322701    0.408022    0.300753    0.000000
   278  O     s     0.657348    0.408026    0.230188    0.000000
   279  O     s     0.990021    0.131112    0.015484    0.000000
   280  O     s     0.490020    0.381112    0.015471    0.000000
   281  O     s     0.257587    0.165632    0.857144    0.000000
   282  O     s     0.722447    0.165630    0.673831    0.000000
   283  O     s     0.757582    0.415620    0.857141    0.000000
   284  O     s     0.222442    0.415642    0.673827    0.000000
   285  O     s     0.183095    0.188578    0.824251    0.000000
   286  O     s     0.796960    0.188593    0.706693    0.000000
   287  O     s     0.683082    0.438591    0.824261    0.000000
   288  O     s     0.296947    0.438579    0.706703    0.000000
   289  O     s     0.306229    0.295425    0.737126    0.000000
   290  O     s     0.673819    0.295434    0.793821    0.000000
   291  O     s     0.806220    0.045435    0.737138    0.000000
   292  O     s     0.173810    0.045423    0.793833    0.000000
   293  O     s     0.105294    0.271287    0.517629    0.000000
   294  O     s     0.874746    0.271287    0.513319    0.000000
   295  O     s     0.605296    0.521287    0.517634    0.000000
   296  O     s     0.374749    0.521289    0.513325    0.000000
   297  O     s     0.251005    0.284297    0.575326    0.000000
   298  O     s     0.729034    0.284294    0.955651    0.000000
   299  O     s     0.751002    0.034292    0.575328    0.000000
   300  O     s     0.229031    0.034299    0.955654    0.000000
   301  O     s     0.059524    0.355815    0.794834    0.000000
   302  O     s     0.920516    0.355816    0.736117    0.000000
   303  O     s     0.559522    0.105814    0.794846    0.000000
   304  O     s     0.420514    0.105817    0.736128    0.000000
   305  O     s     0.231490    0.413689    0.530833    0.000000
   306  O     s     0.748557    0.413701    0.000108    0.000000
   307  O     s     0.731486    0.163690    0.530847    0.000000
   308  O     s     0.248554    0.163700    0.000122    0.000000
   309  O     s     0.990021    0.304328    0.765474    0.000000
   310  O     s     0.490018    0.054328    0.765486    0.000000
   311  O     s     0.868377    0.405393    0.965017    0.000000
   312  O     s     0.111669    0.405390    0.565925    0.000000
   313  O     s     0.368373    0.155392    0.965032    0.000000
   314  O     s     0.611665    0.155392    0.565939    0.000000
   315  O     s     0.822695    0.158026    0.800767    0.000000
   316  O     s     0.157342    0.158023    0.730202    0.000000
   317  O     s     0.322701    0.408022    0.800753    0.000000
   318  O     s     0.657348    0.408026    0.730188    0.000000
   319  O     s     0.990021    0.131112    0.515484    0.000000
   320  O     s     0.490020    0.381112    0.515471    0.000000
   321  O     s     0.257592    0.665630    0.357135    0.000000
   322  O     s     0.722453    0.665632    0.173821    0.000000
   323  O     s     0.757598    0.915642    0.357139    0.000000
   324  O     s     0.222458    0.915620    0.173825    0.000000
   325  O     s     0.183079    0.688593    0.324272    0.000000
   326  O     s     0.796945    0.688578    0.206714    0.000000
   327  O     s     0.683093    0.938579    0.324262    0.000000
   328  O     s     0.296958    0.938592    0.206704    0.000000
   329  O     s     0.306221    0.795434    0.237144    0.000000
   330  O     s     0.673811    0.795425    0.293839    0.000000
   331  O     s     0.806230    0.545423    0.237132    0.000000
   332  O     s     0.173820    0.545435    0.293827    0.000000
   333  O     s     0.105293    0.771288    0.017645    0.000000
   334  O     s     0.874747    0.771288    0.013337    0.000000
   335  O     s     0.605292    0.021288    0.017641    0.000000
   336  O     s     0.374744    0.021286    0.013331    0.000000
   337  O     s     0.251007    0.784294    0.075314    0.000000
   338  O     s     0.729035    0.784297    0.455639    0.000000
   339  O     s     0.751009    0.534299    0.075311    0.000000
   340  O     s     0.229038    0.534292    0.455637    0.000000
   341  O     s     0.059524    0.855816    0.294849    0.000000
   342  O     s     0.920516    0.855815    0.236131    0.000000
   343  O     s     0.559526    0.605817    0.294837    0.000000
   344  O     s     0.420518    0.605814    0.236119    0.000000
   345  O     s     0.231483    0.913701    0.030857    0.000000
   346  O     s     0.748550    0.913689    0.500132    0.000000
   347  O     s     0.731486    0.663700    0.030843    0.000000
   348  O     s     0.248554    0.663690    0.500118    0.000000
   349  O     s     0.990020    0.804328    0.265491    0.000000
   350  O     s     0.490022    0.554328    0.265479    0.000000
   351  O     s     0.868371    0.905390    0.465041    0.000000
   352  O     s     0.111662    0.905393    0.065948    0.000000
   353  O     s     0.368375    0.655392    0.465026    0.000000
   354  O     s     0.611667    0.655392    0.065933    0.000000
   355  O     s     0.822698    0.658023    0.300763    0.000000
   356  O     s     0.157345    0.658026    0.230198    0.000000
   357  O     s     0.322692    0.908026    0.300777    0.000000
   358  O     s     0.657339    0.908022    0.230213    0.000000
   359  O     s     0.990019    0.631112    0.015481    0.000000
   360  O     s     0.490020    0.881112    0.015494    0.000000
   361  O     s     0.257591    0.665630    0.857136    0.000000
   362  O     s     0.722451    0.665632    0.673822    0.000000
   363  O     s     0.757599    0.915642    0.857137    0.000000
   364  O     s     0.222459    0.915620    0.673823    0.000000
   365  O     s     0.183080    0.688593    0.824272    0.000000
   366  O     s     0.796945    0.688578    0.706714    0.000000
   367  O     s     0.683093    0.938579    0.824262    0.000000
   368  O     s     0.296958    0.938591    0.706705    0.000000
   369  O     s     0.306221    0.795434    0.737143    0.000000
   370  O     s     0.673811    0.795425    0.793839    0.000000
   371  O     s     0.806230    0.545423    0.737132    0.000000
   372  O     s     0.173820    0.545435    0.793827    0.000000
   373  O     s     0.105294    0.771287    0.517646    0.000000
   374  O     s     0.874746    0.771287    0.513336    0.000000
   375  O     s     0.605291    0.021289    0.517640    0.000000
   376  O     s     0.374745    0.021287    0.513331    0.000000
   377  O     s     0.251006    0.784294    0.575314    0.000000
   378  O     s     0.729035    0.784297    0.955639    0.000000
   379  O     s     0.751010    0.534299    0.575311    0.000000
   380  O     s     0.229038    0.534292    0.955636    0.000000
   381  O     s     0.059524    0.855817    0.794849    0.000000
   382  O     s     0.920516    0.855814    0.736131    0.000000
   383  O     s     0.559526    0.605816    0.794837    0.000000
   384  O     s     0.420518    0.605815    0.736119    0.000000
   385  O     s     0.231483    0.913702    0.530857    0.000000
   386  O     s     0.748550    0.913689    0.000132    0.000000
   387  O     s     0.731486    0.663700    0.530844    0.000000
   388  O     s     0.248553    0.663690    0.000119    0.000000
   389  O     s     0.990020    0.804328    0.765491    0.000000
   390  O     s     0.490021    0.554328    0.765479    0.000000
   391  O     s     0.868371    0.905391    0.965041    0.000000
   392  O     s     0.111663    0.905393    0.565948    0.000000
   393  O     s     0.368375    0.655391    0.965026    0.000000
   394  O     s     0.611667    0.655392    0.565933    0.000000
   395  O     s     0.822698    0.658023    0.800763    0.000000
   396  O     s     0.157345    0.658026    0.730198    0.000000
   397  O     s     0.322692    0.908026    0.800777    0.000000
   398  O     s     0.657339    0.908022    0.730213    0.000000
   399  O     s     0.990019    0.631112    0.515481    0.000000
   400  O     s     0.490020    0.881112    0.515494    0.000000
--------------------------------------------------------------------------------

  Final Cartesian lattice vectors (Angstroms) :

       26.144849    0.000001    0.001335
        0.000000   17.057506   -0.000001
       17.564523    0.000000    8.815922


  Final cell parameters and derivatives :

--------------------------------------------------------------------------------
       a           26.144849 Angstrom     dE/de1(xx)     0.000321 eV/strain
       b           17.057506 Angstrom     dE/de2(yy)     0.000175 eV/strain
       c           19.652810 Angstrom     dE/de3(zz)    -0.000350 eV/strain
       alpha       90.000000 Degrees      dE/de4(yz)    -0.000008 eV/strain
       beta        26.649901 Degrees      dE/de5(xz)     0.000855 eV/strain
       gamma       90.000000 Degrees      dE/de6(xy)     0.000017 eV/strain
--------------------------------------------------------------------------------

  Primitive cell volume =          3931.201190 Angs**3

  Density of cell =      2.030593 g/cm**3

  Non-primitive cell volume =          3931.201190 Angs**3


  Final internal derivatives :

--------------------------------------------------------------------------------
   No.  Atomic          a             b             c           Radius
        Label          (eV)          (eV)          (eV)        (eV/Angs)
--------------------------------------------------------------------------------
      1 Si    c       0.000727     -0.000433      0.000529      0.000000
      2 Si    c       0.001589      0.000419      0.001143      0.000000
      3 Si    c      -0.002172      0.001266     -0.001359      0.000000
      4 Si    c      -0.001360     -0.001369     -0.000748      0.000000
      5 Si    c       0.002760     -0.000279      0.001537      0.000000
      6 Si    c       0.002874     -0.000005      0.001792      0.000000
      7 Si    c      -0.000443     -0.000104     -0.000544      0.000000
      8 Si    c      -0.000078     -0.000146     -0.000115      0.000000
      9 Si    c      -0.000214      0.000602     -0.000279      0.000000
     10 Si    c       0.000019      0.000201      0.000009      0.000000
     11 Si    c       0.000093      0.000474      0.000013      0.000000
     12 Si    c       0.000471      0.000292      0.000423      0.000000
     13 Si    c       0.001037      0.000083      0.001361      0.000000
     14 Si    c       0.001035     -0.000240      0.000774      0.000000
     15 Si    c       0.000597      0.000389      0.000784      0.000000
     16 Si    c       0.000673     -0.000518      0.000270      0.000000
     17 Si    c      -0.000816     -0.000759     -0.000477      0.000000
     18 Si    c      -0.000281     -0.000466     -0.000830      0.000000
     19 Si    c       0.000181     -0.000595      0.000669      0.000000
     20 Si    c       0.000646     -0.000629      0.000272      0.000000
     21 O     c      -0.001887      0.001104     -0.001277      0.000000
     22 O     c      -0.002175     -0.001781     -0.001399      0.000000
     23 O     c       0.000143     -0.001982     -0.000234      0.000000
     24 O     c      -0.000154      0.001353     -0.000371      0.000000
     25 O     c      -0.000056      0.000132      0.000088      0.000000
     26 O     c      -0.000260      0.000483     -0.000257      0.000000
     27 O     c      -0.000576      0.000431     -0.000446      0.000000
     28 O     c      -0.000844      0.000192     -0.000844      0.000000
     29 O     c      -0.000586     -0.000012     -0.000371      0.000000
     30 O     c      -0.000171      0.000979      0.000211      0.000000
     31 O     c       0.000261      0.000325      0.000246      0.000000
     32 O     c       0.000538      0.000659      0.000734      0.000000
     33 O     c       0.000034     -0.000423     -0.000048      0.000000
     34 O     c       0.000559     -0.000124      0.000204      0.000000
     35 O     c      -0.000555     -0.000382     -0.000226      0.000000
     36 O     c       0.000069     -0.000210      0.000122      0.000000
     37 O     c      -0.001526      0.002192     -0.000733      0.000000
     38 O     c      -0.001212     -0.001497     -0.000401      0.000000
     39 O     c      -0.000219      0.000153     -0.000206      0.000000
     40 O     c       0.000138      0.000502      0.000181      0.000000
     41 O     c      -0.000962      0.000194     -0.000149      0.000000
     42 O     c      -0.000291      0.000293     -0.000119      0.000000
     43 O     c      -0.000854      0.000081     -0.000194      0.000000
     44 O     c      -0.000089      0.000411     -0.000090      0.000000
     45 O     c      -0.001108     -0.000146     -0.000712      0.000000
     46 O     c      -0.000296      0.000624      0.000098      0.000000
     47 O     c      -0.001432      0.000203     -0.001163      0.000000
     48 O     c      -0.000515      0.000280     -0.000280      0.000000
     49 O     c       0.000087     -0.000044      0.000055      0.000000
     50 O     c      -0.000076     -0.000044     -0.000085      0.000000
     51 O     c       0.000712     -0.000525      0.000192      0.000000
     52 O     c      -0.000094      0.000166      0.000012      0.000000
     53 O     c       0.000550     -0.000316      0.000141      0.000000
     54 O     c      -0.000141     -0.000040      0.000042      0.000000
     55 O     c       0.000627     -0.000758      0.000218      0.000000
     56 O     c       0.000356      0.000271      0.000140      0.000000
     57 O     c      -0.000099     -0.000444     -0.000240      0.000000
     58 O     c      -0.000308     -0.000043     -0.000265      0.000000
     59 O     c       0.000726      0.000811      0.001385      0.000000
     60 O     c      -0.000657      0.000854     -0.001366      0.000000
     61 Si    c       0.000738     -0.000434      0.000535      0.000000
     62 Si    c       0.001599      0.000410      0.001145      0.000000
     63 Si    c      -0.002212      0.001260     -0.001383      0.000000
     64 Si    c      -0.001330     -0.001380     -0.000721      0.000000
     65 Si    c       0.002758     -0.000284      0.001529      0.000000
     66 Si    c       0.002902      0.000047      0.001799      0.000000
     67 Si    c      -0.000454     -0.000078     -0.000538      0.000000
     68 Si    c      -0.000123     -0.000193     -0.000130      0.000000
     69 Si    c      -0.000236      0.000584     -0.000311      0.000000
     70 Si    c       0.000021      0.000211     -0.000004      0.000000
     71 Si    c       0.000112      0.000506      0.000043      0.000000
     72 Si    c       0.000489      0.000303      0.000452      0.000000
     73 Si    c       0.000975      0.000088      0.001306      0.000000
     74 Si    c       0.000996     -0.000247      0.000743      0.000000
     75 Si    c       0.000655      0.000398      0.000835      0.000000
     76 Si    c       0.000726     -0.000509      0.000312      0.000000
     77 Si    c      -0.000806     -0.000777     -0.000470      0.000000
     78 Si    c      -0.000303     -0.000492     -0.000835      0.000000
     79 Si    c       0.000205     -0.000607      0.000686      0.000000
     80 Si    c       0.000638     -0.000601      0.000263      0.000000
     81 O     c      -0.001821      0.001090     -0.001229      0.000000
     82 O     c      -0.002123     -0.001781     -0.001364      0.000000
     83 O     c       0.000094     -0.001981     -0.000266      0.000000
     84 O     c      -0.000203      0.001331     -0.000406      0.000000
     85 O     c      -0.000069      0.000134      0.000088      0.000000
     86 O     c      -0.000244      0.000478     -0.000240      0.000000
     87 O     c      -0.000552      0.000436     -0.000431      0.000000
     88 O     c      -0.000855      0.000195     -0.000862      0.000000
     89 O     c      -0.000566     -0.000038     -0.000359      0.000000
     90 O     c      -0.000145      0.001006      0.000231      0.000000
     91 O     c       0.000206      0.000304      0.000233      0.000000
     92 O     c       0.000524      0.000572      0.000696      0.000000
     93 O     c      -0.000000     -0.000445     -0.000082      0.000000
     94 O     c       0.000592     -0.000157      0.000251      0.000000
     95 O     c      -0.000548     -0.000352     -0.000202      0.000000
     96 O     c       0.000041     -0.000176      0.000083      0.000000
     97 O     c      -0.001606      0.002216     -0.000774      0.000000
     98 O     c      -0.001302     -0.001539     -0.000439      0.000000
     99 O     c      -0.000123      0.000110     -0.000161      0.000000
    100 O     c       0.000226      0.000544      0.000219      0.000000
    101 O     c      -0.001049      0.000198     -0.000192      0.000000
    102 O     c      -0.000382      0.000287     -0.000173      0.000000
    103 O     c      -0.000769      0.000065     -0.000148      0.000000
    104 O     c       0.000023      0.000432     -0.000027      0.000000
    105 O     c      -0.001098     -0.000137     -0.000705      0.000000
    106 O     c      -0.000314      0.000601      0.000079      0.000000
    107 O     c      -0.001447      0.000187     -0.001172      0.000000
    108 O     c      -0.000510      0.000303     -0.000269      0.000000
    109 O     c       0.000108     -0.000043      0.000080      0.000000
    110 O     c      -0.000072     -0.000042     -0.000089      0.000000
    111 O     c       0.000704     -0.000543      0.000176      0.000000
    112 O     c      -0.000093      0.000197      0.000001      0.000000
    113 O     c       0.000572     -0.000287      0.000165      0.000000
[...]
    149 O     c       0.000170      0.001011     -0.000208      0.000000
    150 O     c       0.000503      0.000021      0.000339      0.000000
    151 O     c      -0.000615      0.000628     -0.000778      0.000000
    152 O     c      -0.000146      0.000317     -0.000185      0.000000
    153 O     c      -0.000551     -0.000084     -0.000170      0.000000
    154 O     c      -0.000076     -0.000421      0.000019      0.000000
    155 O     c       0.000030     -0.000202     -0.000046      0.000000
    156 O     c       0.000466     -0.000377      0.000164      0.000000
    157 O     c       0.001265     -0.001492      0.000423      0.000000
    158 O     c       0.001596      0.002264      0.000762      0.000000
    159 O     c      -0.000140      0.000536     -0.000158      0.000000
    160 O     c       0.000070      0.000129      0.000120      0.000000
    161 O     c       0.000344      0.000282      0.000146      0.000000
    162 O     c       0.001063      0.000186      0.000192      0.000000
    163 O     c       0.000087      0.000408      0.000109      0.000000
    164 O     c       0.000675      0.000072      0.000077      0.000000
    165 O     c       0.000321      0.000562     -0.000053      0.000000
    166 O     c       0.001121     -0.000133      0.000727      0.000000
    167 O     c       0.000610      0.000286      0.000346      0.000000
    168 O     c       0.001377      0.000193      0.001122      0.000000
    169 O     c      -0.000085     -0.000054     -0.000062      0.000000
    170 O     c       0.000075     -0.000046      0.000091      0.000000
    171 O     c       0.000079      0.000194     -0.000012      0.000000
    172 O     c      -0.000691     -0.000605     -0.000151      0.000000
    173 O     c       0.000192     -0.000068     -0.000018      0.000000
    174 O     c      -0.000617     -0.000278     -0.000200      0.000000
    175 O     c      -0.000340      0.000264     -0.000140      0.000000
    176 O     c      -0.000613     -0.000732     -0.000219      0.000000
    177 O     c       0.000354     -0.000030      0.000306      0.000000
    178 O     c      -0.000003     -0.000466      0.000186      0.000000
    179 O     c      -0.000721      0.000788     -0.001355      0.000000
    180 O     c       0.000670      0.000853      0.001398      0.000000
    181 Si    c      -0.001599      0.000347     -0.001165      0.000000
    182 Si    c      -0.000735     -0.000459     -0.000531      0.000000
    183 Si    c       0.001461     -0.001399      0.000827      0.000000
    184 Si    c       0.002202      0.001446      0.001362      0.000000
    185 Si    c      -0.002937      0.000014     -0.001851      0.000000
    186 Si    c      -0.002729     -0.000269     -0.001514      0.000000
    187 Si    c       0.000165     -0.000140      0.000176      0.000000
    188 Si    c       0.000367     -0.000093      0.000487      0.000000
    189 Si    c      -0.000043      0.000174     -0.000015      0.000000
    190 Si    c       0.000237      0.000593      0.000307      0.000000
    191 Si    c      -0.000383      0.000313     -0.000348      0.000000
    192 Si    c      -0.000161      0.000508     -0.000067      0.000000
    193 Si    c      -0.001042     -0.000221     -0.000793      0.000000
    194 Si    c      -0.001040      0.000107     -0.001348      0.000000
    195 Si    c      -0.000591     -0.000545     -0.000212      0.000000
    196 Si    c      -0.000691      0.000414     -0.000855      0.000000
    197 Si    c       0.000323     -0.000471      0.000868      0.000000
    198 Si    c       0.000797     -0.000770      0.000463      0.000000
    199 Si    c      -0.000671     -0.000654     -0.000293      0.000000
    200 Si    c      -0.000263     -0.000637     -0.000665      0.000000
    201 O     c       0.002176     -0.001797      0.001391      0.000000
    202 O     c       0.001886      0.001102      0.001276      0.000000
    203 O     c       0.000171      0.001370      0.000383      0.000000
    204 O     c      -0.000346     -0.002140      0.000102      0.000000
    205 O     c       0.000434      0.000520      0.000387      0.000000
    206 O     c       0.000049      0.000120     -0.000095      0.000000
    207 O     c       0.000827      0.000192      0.000834      0.000000
    208 O     c       0.000635      0.000389      0.000509      0.000000
    209 O     c       0.000268      0.001032     -0.000164      0.000000
    210 O     c       0.000572     -0.000016      0.000363      0.000000
    211 O     c      -0.000609      0.000649     -0.000772      0.000000
    212 O     c      -0.000161      0.000282     -0.000192      0.000000
    213 O     c      -0.000567     -0.000166     -0.000242      0.000000
    214 O     c      -0.000021     -0.000446      0.000067      0.000000
    215 O     c       0.000116     -0.000186      0.000027      0.000000
    216 O     c       0.000440     -0.000397      0.000121      0.000000
    217 O     c       0.001208     -0.001460      0.000398      0.000000
    218 O     c       0.001541      0.002223      0.000752      0.000000
    219 O     c      -0.000081      0.000503     -0.000135      0.000000
    220 O     c       0.000137      0.000163      0.000144      0.000000
    221 O     c       0.000301      0.000285      0.000130      0.000000
    222 O     c       0.000992      0.000181      0.000170      0.000000
    223 O     c       0.000149      0.000414      0.000143      0.000000
    224 O     c       0.000736      0.000081      0.000112      0.000000
    225 O     c       0.000320      0.000615     -0.000081      0.000000
    226 O     c       0.001187     -0.000139      0.000785      0.000000
    227 O     c       0.000616      0.000270      0.000351      0.000000
    228 O     c       0.001351      0.000213      0.001101      0.000000
    229 O     c      -0.000132     -0.000051     -0.000093      0.000000
    230 O     c       0.000062     -0.000045      0.000069      0.000000
    231 O     c       0.000031      0.000165     -0.000056      0.000000
    232 O     c      -0.000703     -0.000535     -0.000183      0.000000
    233 O     c       0.000198     -0.000053     -0.000002      0.000000
    234 O     c      -0.000646     -0.000303     -0.000201      0.000000
    235 O     c      -0.000347      0.000273     -0.000136      0.000000
    236 O     c      -0.000599     -0.000759     -0.000192      0.000000
    237 O     c       0.000409     -0.000014      0.000347      0.000000
    238 O     c       0.000066     -0.000458      0.000219      0.000000
    239 O     c      -0.000713      0.000850     -0.001389      0.000000
    240 O     c       0.000000      0.000000      0.000000      0.000000
    241 O     s       0.000411      0.000247      0.000234      0.000000
    242 O     s       0.000397      0.000150      0.000294      0.000000
    243 O     s      -0.000366      0.000462     -0.000307      0.000000
    244 O     s      -0.000379     -0.000014     -0.000249      0.000000
    245 O     s       0.000430     -0.000328      0.000080      0.000000
    246 O     s       0.000872     -0.000338      0.000673      0.000000
    247 O     s      -0.001195     -0.000488     -0.000792      0.000000
    248 O     s      -0.000780     -0.000173     -0.000205      0.000000
    249 O     s       0.000627     -0.000132      0.000337      0.000000
    250 O     s      -0.000516      0.000158     -0.000102      0.000000
    251 O     s       0.000423     -0.000912      0.000090      0.000000
    252 O     s      -0.000519      0.000886     -0.000203      0.000000
    253 O     s      -0.000125     -0.000025     -0.000028      0.000000
    254 O     s      -0.000282      0.000703     -0.000599      0.000000
    255 O     s       0.000703      0.000786      0.000851      0.000000
    256 O     s       0.000360     -0.000184      0.000163      0.000000
    257 O     s       0.000055      0.000460     -0.000174      0.000000
    258 O     s      -0.000496     -0.000474     -0.000670      0.000000
    259 O     s       0.000531     -0.000003      0.000377      0.000000
    260 O     s      -0.000195     -0.000045     -0.000245      0.000000
    261 O     s       0.001699     -0.000231      0.001032      0.000000
    262 O     s       0.001150     -0.000456      0.000392      0.000000
    263 O     s       0.000629     -0.000249      0.000525      0.000000
    264 O     s      -0.000096     -0.000425     -0.000256      0.000000
    265 O     s       0.001504     -0.000479      0.001109      0.000000
    266 O     s       0.000963     -0.000043      0.000906      0.000000
    267 O     s       0.000479     -0.000127      0.000308      0.000000
    268 O     s      -0.000161     -0.000380      0.000042      0.000000
    269 O     s      -0.000091     -0.000050      0.000069      0.000000
    270 O     s       0.000142     -0.000043      0.000167      0.000000
    271 O     s       0.000427      0.000102      0.000254      0.000000
    272 O     s       0.000211     -0.000075      0.000139      0.000000
    273 O     s       0.000254     -0.000041      0.000107      0.000000
    274 O     s      -0.000106      0.000103     -0.000127      0.000000
    275 O     s      -0.000233      0.000574     -0.000309      0.000000
    276 O     s      -0.000192     -0.000583      0.000389      0.000000
    277 O     s       0.000359      0.000149      0.000018      0.000000
    278 O     s       0.000300     -0.000182      0.000634      0.000000
    279 O     s      -0.000245     -0.000195     -0.000339      0.000000
    280 O     s       0.000061     -0.000220      0.000199      0.000000
    281 O     s       0.000344      0.000220      0.000176      0.000000
    282 O     s       0.000352      0.000202      0.000250      0.000000
    283 O     s      -0.000319      0.000499     -0.000261      0.000000
    284 O     s      -0.000334     -0.000033     -0.000210      0.000000
    285 O     s       0.000460     -0.000331      0.000093      0.000000
    286 O     s       0.000865     -0.000336      0.000663      0.000000
    287 O     s      -0.001210     -0.000486     -0.000793      0.000000
    288 O     s      -0.000798     -0.000169     -0.000218      0.000000
    289 O     s       0.000597     -0.000121      0.000317      0.000000
    290 O     s      -0.000562      0.000164     -0.000136      0.000000
    291 O     s       0.000462     -0.000890      0.000110      0.000000
    292 O     s      -0.000481      0.000973     -0.000161      0.000000
    293 O     s      -0.000060     -0.000055      0.000012      0.000000
    294 O     s      -0.000352      0.000682     -0.000650      0.000000
    295 O     s       0.000676      0.000816      0.000835      0.000000
    296 O     s       0.000422     -0.000161      0.000203      0.000000
    297 O     s       0.000114      0.000461     -0.000128      0.000000
    298 O     s      -0.000448     -0.000478     -0.000622      0.000000
    299 O     s       0.000455      0.000003      0.000316      0.000000
    300 O     s      -0.000232     -0.000036     -0.000278      0.000000
    301 O     s       0.001791     -0.000230      0.001090      0.000000
    302 O     s       0.001237     -0.000453      0.000453      0.000000
    303 O     s       0.000522     -0.000239      0.000457      0.000000
    304 O     s      -0.000186     -0.000453     -0.000324      0.000000
    305 O     s       0.001518     -0.000507      0.001119      0.000000
    306 O     s       0.000955     -0.000003      0.000894      0.000000
    307 O     s       0.000503     -0.000087      0.000331      0.000000
    308 O     s      -0.000144     -0.000414      0.000056      0.000000
    309 O     s      -0.000044     -0.000053      0.000099      0.000000
    310 O     s       0.000082     -0.000051      0.000128      0.000000
    311 O     s       0.000490      0.000110      0.000306      0.000000
    312 O     s       0.000266     -0.000086      0.000185      0.000000
    313 O     s       0.000192     -0.000067      0.000055      0.000000
    314 O     s      -0.000198      0.000123     -0.000195      0.000000
    315 O     s      -0.000166      0.000552     -0.000264      0.000000
    316 O     s      -0.000146     -0.000564      0.000418      0.000000
    317 O     s       0.000335      0.000165      0.000004      0.000000
    318 O     s       0.000276     -0.000203      0.000621      0.000000
    319 O     s      -0.000232     -0.000215     -0.000335      0.000000
    320 O     s       0.000058     -0.000198      0.000191      0.000000
    321 O     s      -0.000359      0.000205     -0.000253      0.000000
    322 O     s      -0.000362      0.000252     -0.000186      0.000000
    323 O     s       0.000270     -0.000077      0.000175      0.000000
    324 O     s       0.000310      0.000469      0.000255      0.000000
    325 O     s      -0.000918     -0.000321     -0.000699      0.000000
    326 O     s      -0.000467     -0.000327     -0.000103      0.000000
    327 O     s       0.000950     -0.000077      0.000260      0.000000
    328 O     s       0.001266     -0.000464      0.000828      0.000000
    329 O     s       0.000529      0.000157      0.000107      0.000000
    330 O     s      -0.000619     -0.000150     -0.000354      0.000000
    331 O     s       0.000618      0.000924      0.000268      0.000000
    332 O     s      -0.000581     -0.000894     -0.000205      0.000000
    333 O     s       0.000269      0.000705      0.000585      0.000000
    334 O     s       0.000169     -0.000025      0.000072      0.000000
    335 O     s      -0.000522     -0.000188     -0.000287      0.000000
    336 O     s      -0.000559      0.000780     -0.000748      0.000000
    337 O     s       0.000463     -0.000468      0.000641      0.000000
    338 O     s      -0.000094      0.000446      0.000142      0.000000
    339 O     s       0.000118     -0.000052      0.000192      0.000000
    340 O     s      -0.000343      0.000007     -0.000229      0.000000
    341 O     s      -0.001192     -0.000440     -0.000426      0.000000
    342 O     s      -0.001755     -0.000230     -0.001066      0.000000
    343 O     s       0.000057     -0.000413      0.000223      0.000000
    344 O     s      -0.000393     -0.000243     -0.000353      0.000000
    345 O     s      -0.000912     -0.000008     -0.000865      0.000000
    346 O     s      -0.001491     -0.000531     -0.001109      0.000000
    347 O     s       0.000071     -0.000416     -0.000098      0.000000
    348 O     s      -0.000391     -0.000105     -0.000252      0.000000
    349 O     s      -0.000002     -0.000032     -0.000141      0.000000
    350 O     s      -0.000076     -0.000047     -0.000120      0.000000
    351 O     s      -0.000248     -0.000072     -0.000165      0.000000
    352 O     s      -0.000555      0.000136     -0.000360      0.000000
    353 O     s       0.000092      0.000107      0.000120      0.000000
    354 O     s      -0.000120     -0.000083      0.000004      0.000000
    355 O     s       0.000139     -0.000595     -0.000419      0.000000
    356 O     s       0.000172      0.000556      0.000263      0.000000
    357 O     s      -0.000345     -0.000173     -0.000669      0.000000
    358 O     s      -0.000176      0.000188      0.000076      0.000000
    359 O     s       0.000198     -0.000199      0.000315      0.000000
    360 O     s      -0.000067     -0.000209     -0.000202      0.000000
    361 O     s      -0.000437      0.000169     -0.000315      0.000000
    362 O     s      -0.000420      0.000262     -0.000246      0.000000
    363 O     s       0.000309      0.000000      0.000195      0.000000
    364 O     s       0.000350      0.000448      0.000310      0.000000
    365 O     s      -0.000949     -0.000298     -0.000741      0.000000
    366 O     s      -0.000406     -0.000325     -0.000063      0.000000
    367 O     s       0.000815     -0.000161      0.000221      0.000000
    368 O     s       0.001343     -0.000512      0.000896      0.000000
    369 O     s       0.000386      0.000175     -0.000019      0.000000
    370 O     s      -0.000608     -0.000120     -0.000326      0.000000
    371 O     s       0.000632      0.000905      0.000274      0.000000
    372 O     s      -0.000575     -0.000897     -0.000204      0.000000
    373 O     s       0.000298      0.000683      0.000608      0.000000
    374 O     s       0.000088     -0.000053      0.000006      0.000000
    375 O     s      -0.000641     -0.000169     -0.000371      0.000000
    376 O     s      -0.000493      0.000914     -0.000708      0.000000
    377 O     s       0.000484     -0.000517      0.000663      0.000000
    378 O     s      -0.000114      0.000414      0.000139      0.000000
    379 O     s       0.000093     -0.000058      0.000167      0.000000
    380 O     s      -0.000365     -0.000005     -0.000253      0.000000
    381 O     s      -0.001173     -0.000444     -0.000412      0.000000
    382 O     s      -0.001746     -0.000223     -0.001079      0.000000
    383 O     s      -0.000009     -0.000431      0.000167      0.000000
    384 O     s      -0.000458     -0.000249     -0.000401      0.000000
    385 O     s      -0.000994     -0.000027     -0.000921      0.000000
    386 O     s      -0.001539     -0.000458     -0.001152      0.000000
    387 O     s       0.000063     -0.000382     -0.000102      0.000000
    388 O     s      -0.000381     -0.000157     -0.000234      0.000000
    389 O     s       0.000137     -0.000039     -0.000037      0.000000
    390 O     s      -0.000154     -0.000050     -0.000176      0.000000
    391 O     s      -0.000117     -0.000057     -0.000073      0.000000
    392 O     s      -0.000433      0.000124     -0.000268      0.000000
    393 O     s       0.000019      0.000102      0.000059      0.000000
    394 O     s      -0.000160     -0.000088     -0.000037      0.000000
    395 O     s       0.000166     -0.000595     -0.000408      0.000000
    396 O     s       0.000200      0.000572      0.000270      0.000000
    397 O     s      -0.000444     -0.000203     -0.000714      0.000000
    398 O     s      -0.000305      0.000170      0.000015      0.000000
    399 O     s       0.000207     -0.000214      0.000326      0.000000
    400 O     s       0.000075     -0.000179     -0.000194      0.000000
--------------------------------------------------------------------------------
  Maximum abs         0.002937      0.002264      0.001851      0.000000
--------------------------------------------------------------------------------


  Time to end of optimisation =      10.7131 seconds


  Peak dynamic memory used =       7.89 MB 


  Timing analysis for GULP :

--------------------------------------------------------------------------------
  Task / Subroutine                                          Time (Seconds)
--------------------------------------------------------------------------------
  Calculation of reciprocal space energy and derivatives          0.4275
  Calculation of real space energy and derivatives                5.4676
  Calculation of three-body energy and derivatives                2.7731
  Calculation and manipulation of Hessian matrix                  2.3307
  Calculation of matrix inversion                                 0.2296
  Symmetry generation of equivalent positions                     0.0004
  Global summation overhead                                       0.1524
--------------------------------------------------------------------------------
  Total CPU time                                                 10.7132
--------------------------------------------------------------------------------


  Dump file written as ReferenceDataBase/8049967_122.grs
  CIF file written as ReferenceDataBase/8049967_122_opt.cif


  Job Finished at 18:39.48 20th April      2023                               

