********************************************************************************
*                       GENERAL UTILITY LATTICE PROGRAM                        *
*                                 Julian Gale                                  *
*                       Curtin Institute for Computation                       *
*                    School of Molecular and Life Sciences                     *
*                    Curtin University, Western Australia                      *
********************************************************************************
* Version = 6.1.2 * Last modified =   3rd November 2022                        *
********************************************************************************
*  optimise     - perform optimisation run                                     *
*  conv         - constant volume calculation                                  *
*  shell        - only shells and radii to be optimised                        *
*  nosymmetry   - turn off symmetry after initial structure generation         *
********************************************************************************

  Job Started  at 00:40.54  6th February   2024                               

  Number of CPUs =     1


  Total number of configurations input =      1

********************************************************************************
*  Input for Configuration =   1 : ReferenceDataBase/8078629_111               *
********************************************************************************

  Formula = Si30O60                                                     

  Number of irreducible atoms/shells =     150


  Total number atoms/shells =     150

  Dimensionality = 3               :  Bulk   



  Cartesian lattice vectors (Angstroms) :

       13.288000    0.000000    0.000000
        3.247705   12.885005    0.000000
        3.247705    2.530687   12.634041

  Cell parameters (Angstroms/Degrees):

  a =      13.2880    alpha =  75.8531
  b =      13.2880    beta  =  75.8531
  c =      13.2880    gamma =  75.8531

  Initial cell volume =        2163.149267 Angs**3

  Temperature of configuration =   0.00     K 

  Pressure of configuration =         0.000 GPa 

  Fractional coordinates of asymmetric unit :

--------------------------------------------------------------------------------
   No.  Atomic       x           y          z         Charge      Occupancy
        Label      (Frac)      (Frac)     (Frac)        (e)         (Frac)  
--------------------------------------------------------------------------------
      1 Si    c    0.354761    0.887827    0.546514     4.00000    1.000000    
      2 Si    c    0.116254    0.311581    0.495560     4.00000    1.000000    
      3 O     c    0.281499    0.004929    0.533521     0.86902    1.000000    
      4 O     c    0.406406    0.860103    0.650039     0.86902    1.000000    
      5 O     c    0.288130    0.800026    0.551334     0.86902    1.000000    
      6 Si    c    0.498184    0.699559    0.303184     4.00000    1.000000    
      7 O     c    0.447729    0.888654    0.446043     0.86902    1.000000    
      8 O     c    0.584867    0.592927    0.312860     0.86902    1.000000    
      9 O     c    0.193925    0.201985    0.478259     0.86902    1.000000    
     10 O     c    0.129560    0.396202    0.386456     0.86902    1.000000    
     11 Si    c    0.548199    0.362822    0.878081     4.00000    1.000000    
     12 Si    c    0.497245    0.124314    0.301835     4.00000    1.000000    
     13 O     c    0.535206    0.289559    0.995184     0.86902    1.000000    
     14 O     c    0.651724    0.414467    0.850358     0.86902    1.000000    
     15 O     c    0.553020    0.296190    0.790280     0.86902    1.000000    
     16 Si    c    0.304869    0.506244    0.689814     4.00000    1.000000    
     17 O     c    0.447729    0.455789    0.878908     0.86902    1.000000    
     18 O     c    0.314545    0.592927    0.583181     0.86902    1.000000    
     19 O     c    0.479945    0.201985    0.192239     0.86902    1.000000    
     20 O     c    0.388141    0.137620    0.386456     0.86902    1.000000    
     21 Si    c    0.879766    0.556260    0.353076     4.00000    1.000000    
     22 Si    c    0.303521    0.505305    0.114569     4.00000    1.000000    
     23 O     c    0.996869    0.543266    0.279813     0.86902    1.000000    
     24 O     c    0.852043    0.659784    0.404721     0.86902    1.000000    
     25 O     c    0.791965    0.561080    0.286445     0.86902    1.000000    
     26 Si    c    0.691499    0.312930    0.496499     4.00000    1.000000    
     27 O     c    0.880594    0.455789    0.446043     0.86902    1.000000    
     28 O     c    0.584866    0.322605    0.583181     0.86902    1.000000    
     29 O     c    0.193925    0.488005    0.192239     0.86902    1.000000    
     30 O     c    0.388141    0.396202    0.127874     0.86902    1.000000    
     31 Si    c    0.116602    0.649667    0.446484     4.00000    1.000000    
     32 Si    c    0.692848    0.888175    0.497438     4.00000    1.000000    
     33 O     c    0.999499    0.722930    0.459477     0.86902    1.000000    
     34 O     c    0.144325    0.598022    0.342959     0.86902    1.000000    
     35 O     c    0.204403    0.716299    0.441663     0.86902    1.000000    
     36 O     c    0.115775    0.556700    0.546954     0.86902    1.000000    
     37 O     c    0.411502    0.419562    0.680138     0.86902    1.000000    
     38 O     c    0.802444    0.810504    0.514738     0.86902    1.000000    
     39 O     c    0.608227    0.874869    0.606542     0.86902    1.000000    
     40 Si    c    0.448169    0.124662    0.639922     4.00000    1.000000    
     41 Si    c    0.499123    0.700908    0.878429     4.00000    1.000000    
     42 O     c    0.461163    0.007560    0.713184     0.86902    1.000000    
     43 O     c    0.344644    0.152386    0.588277     0.86902    1.000000    
     44 O     c    0.443349    0.212463    0.706553     0.86902    1.000000    
     45 O     c    0.548640    0.123835    0.546954     0.86902    1.000000    
     46 O     c    0.681823    0.419562    0.409816     0.86902    1.000000    
     47 O     c    0.516424    0.810504    0.800758     0.86902    1.000000    
     48 O     c    0.608227    0.616287    0.865123     0.86902    1.000000    
     49 Si    c    0.641607    0.456229    0.114917     4.00000    1.000000    
     50 Si    c    0.880114    0.507184    0.691162     4.00000    1.000000    
     51 O     c    0.714870    0.469223    0.997814     0.86902    1.000000    
     52 O     c    0.589962    0.352705    0.142640     0.86902    1.000000    
     53 O     c    0.708238    0.451409    0.202717     0.86902    1.000000    
     54 O     c    0.548640    0.556700    0.114089     0.86902    1.000000    
     55 O     c    0.411502    0.689884    0.409816     0.86902    1.000000    
     56 O     c    0.802444    0.524484    0.800758     0.86902    1.000000    
     57 O     c    0.866809    0.616287    0.606542     0.86902    1.000000    
     58 Si    c    0.641607    0.124662    0.446484     4.00000    1.000000    
     59 Si    c    0.880114    0.700908    0.497438     4.00000    1.000000    
     60 O     c    0.714870    0.007560    0.459477     0.86902    1.000000    
     61 O     c    0.589962    0.152386    0.342959     0.86902    1.000000    
     62 O     c    0.708238    0.212463    0.441663     0.86902    1.000000    
     63 Si    c    0.498184    0.312930    0.689814     4.00000    1.000000    
     64 Si    c    0.448169    0.649667    0.114917     4.00000    1.000000    
     65 Si    c    0.499123    0.888175    0.691162     4.00000    1.000000    
     66 O     c    0.461163    0.722930    0.997814     0.86902    1.000000    
     67 O     c    0.344644    0.598022    0.142640     0.86902    1.000000    
     68 O     c    0.443349    0.716299    0.202717     0.86902    1.000000    
     69 Si    c    0.691499    0.506244    0.303184     4.00000    1.000000    
     70 Si    c    0.116602    0.456229    0.639922     4.00000    1.000000    
     71 Si    c    0.692848    0.507184    0.878429     4.00000    1.000000    
     72 O     c    0.999499    0.469223    0.713184     0.86902    1.000000    
     73 O     c    0.144325    0.352705    0.588277     0.86902    1.000000    
     74 O     c    0.204403    0.451409    0.706553     0.86902    1.000000    
     75 Si    c    0.304869    0.699559    0.496499     4.00000    1.000000    
     76 Si    c    0.879766    0.362822    0.546514     4.00000    1.000000    
     77 Si    c    0.303521    0.124314    0.495560     4.00000    1.000000    
     78 O     c    0.996869    0.289559    0.533521     0.86902    1.000000    
     79 O     c    0.852043    0.414467    0.650038     0.86902    1.000000    
     80 O     c    0.791965    0.296190    0.551334     0.86902    1.000000    
     81 Si    c    0.548199    0.887827    0.353076     4.00000    1.000000    
     82 Si    c    0.497245    0.311581    0.114569     4.00000    1.000000    
     83 O     c    0.535206    0.004929    0.279813     0.86902    1.000000    
     84 O     c    0.651724    0.860103    0.404721     0.86902    1.000000    
     85 O     c    0.553020    0.800026    0.286445     0.86902    1.000000    
     86 Si    c    0.354761    0.556260    0.878081     4.00000    1.000000    
     87 Si    c    0.116254    0.505305    0.301835     4.00000    1.000000    
     88 O     c    0.281499    0.543266    0.995184     0.86902    1.000000    
     89 O     c    0.406406    0.659784    0.850358     0.86902    1.000000    
     90 O     c    0.288130    0.561080    0.790280     0.86902    1.000000    
     91 O     s    0.281499 *  0.004929 *  0.533521 *  -2.86902    1.000000    
     92 O     s    0.406406 *  0.860103 *  0.650039 *  -2.86902    1.000000    
     93 O     s    0.288130 *  0.800026 *  0.551334 *  -2.86902    1.000000    
     94 O     s    0.447729 *  0.888654 *  0.446043 *  -2.86902    1.000000    
     95 O     s    0.584867 *  0.592927 *  0.312860 *  -2.86902    1.000000    
     96 O     s    0.193925 *  0.201985 *  0.478259 *  -2.86902    1.000000    
     97 O     s    0.129560 *  0.396202 *  0.386456 *  -2.86902    1.000000    
     98 O     s    0.535206 *  0.289559 *  0.995184 *  -2.86902    1.000000    
     99 O     s    0.651724 *  0.414467 *  0.850358 *  -2.86902    1.000000    
    100 O     s    0.553020 *  0.296190 *  0.790280 *  -2.86902    1.000000    
    101 O     s    0.447729 *  0.455789 *  0.878908 *  -2.86902    1.000000    
    102 O     s    0.314545 *  0.592927 *  0.583181 *  -2.86902    1.000000    
    103 O     s    0.479945 *  0.201985 *  0.192239 *  -2.86902    1.000000    
    104 O     s    0.388141 *  0.137620 *  0.386456 *  -2.86902    1.000000    
    105 O     s    0.996869 *  0.543266 *  0.279813 *  -2.86902    1.000000    
    106 O     s    0.852043 *  0.659784 *  0.404721 *  -2.86902    1.000000    
    107 O     s    0.791965 *  0.561080 *  0.286445 *  -2.86902    1.000000    
    108 O     s    0.880594 *  0.455789 *  0.446043 *  -2.86902    1.000000    
    109 O     s    0.584866 *  0.322605 *  0.583181 *  -2.86902    1.000000    
    110 O     s    0.193925 *  0.488005 *  0.192239 *  -2.86902    1.000000    
    111 O     s    0.388141 *  0.396202 *  0.127874 *  -2.86902    1.000000    
    112 O     s    0.999499 *  0.722930 *  0.459477 *  -2.86902    1.000000    
    113 O     s    0.144325 *  0.598022 *  0.342959 *  -2.86902    1.000000    
    114 O     s    0.204403 *  0.716299 *  0.441663 *  -2.86902    1.000000    
    115 O     s    0.115775 *  0.556700 *  0.546954 *  -2.86902    1.000000    
    116 O     s    0.411502 *  0.419562 *  0.680138 *  -2.86902    1.000000    
    117 O     s    0.802444 *  0.810504 *  0.514738 *  -2.86902    1.000000    
    118 O     s    0.608227 *  0.874869 *  0.606542 *  -2.86902    1.000000    
    119 O     s    0.461163 *  0.007560 *  0.713184 *  -2.86902    1.000000    
    120 O     s    0.344644 *  0.152386 *  0.588277 *  -2.86902    1.000000    
    121 O     s    0.443349 *  0.212463 *  0.706553 *  -2.86902    1.000000    
    122 O     s    0.548640 *  0.123835 *  0.546954 *  -2.86902    1.000000    
    123 O     s    0.681823 *  0.419562 *  0.409816 *  -2.86902    1.000000    
    124 O     s    0.516424 *  0.810504 *  0.800758 *  -2.86902    1.000000    
    125 O     s    0.608227 *  0.616287 *  0.865123 *  -2.86902    1.000000    
    126 O     s    0.714870 *  0.469223 *  0.997814 *  -2.86902    1.000000    
    127 O     s    0.589962 *  0.352705 *  0.142640 *  -2.86902    1.000000    
    128 O     s    0.708238 *  0.451409 *  0.202717 *  -2.86902    1.000000    
    129 O     s    0.548640 *  0.556700 *  0.114089 *  -2.86902    1.000000    
    130 O     s    0.411502 *  0.689884 *  0.409816 *  -2.86902    1.000000    
    131 O     s    0.802444 *  0.524484 *  0.800758 *  -2.86902    1.000000    
    132 O     s    0.866809 *  0.616287 *  0.606542 *  -2.86902    1.000000    
    133 O     s    0.714870 *  0.007560 *  0.459477 *  -2.86902    1.000000    
    134 O     s    0.589962 *  0.152386 *  0.342959 *  -2.86902    1.000000    
    135 O     s    0.708238 *  0.212463 *  0.441663 *  -2.86902    1.000000    
    136 O     s    0.461163 *  0.722930 *  0.997814 *  -2.86902    1.000000    
    137 O     s    0.344644 *  0.598022 *  0.142640 *  -2.86902    1.000000    
    138 O     s    0.443349 *  0.716299 *  0.202717 *  -2.86902    1.000000    
    139 O     s    0.999499 *  0.469223 *  0.713184 *  -2.86902    1.000000    
    140 O     s    0.144325 *  0.352705 *  0.588277 *  -2.86902    1.000000    
    141 O     s    0.204403 *  0.451409 *  0.706553 *  -2.86902    1.000000    
    142 O     s    0.996869 *  0.289559 *  0.533521 *  -2.86902    1.000000    
    143 O     s    0.852043 *  0.414467 *  0.650038 *  -2.86902    1.000000    
    144 O     s    0.791965 *  0.296190 *  0.551334 *  -2.86902    1.000000    
    145 O     s    0.535206 *  0.004929 *  0.279813 *  -2.86902    1.000000    
    146 O     s    0.651724 *  0.860103 *  0.404721 *  -2.86902    1.000000    
    147 O     s    0.553020 *  0.800026 *  0.286445 *  -2.86902    1.000000    
    148 O     s    0.281499 *  0.543266 *  0.995184 *  -2.86902    1.000000    
    149 O     s    0.406406 *  0.659784 *  0.850358 *  -2.86902    1.000000    
    150 O     s    0.288130 *  0.561080 *  0.790280 *  -2.86902    1.000000    
--------------------------------------------------------------------------------



********************************************************************************
*  General input information                                                   *
********************************************************************************

  Species output for all configurations : 

--------------------------------------------------------------------------------
  Species    Type    Atomic    Atomic    Charge       Radii (Angs)     Library
                     Number     Mass       (e)     Cova   Ionic  VDW   Symbol
--------------------------------------------------------------------------------
    O        Core        8      16.00   0.869020   0.730  0.000  1.360 O        
    O        Shell       8       0.00  -2.869020   0.730  0.000  0.000 O        
    Si       Core       14      28.09   4.000000   1.200  0.000  2.100 Si       
--------------------------------------------------------------------------------


  Lattice summation method               =    Ewald          (3-D)
                                         =    Parry          (2-D)
                                         =    Saunders et al (1-D)
  Accuracy factor for lattice sums       =   12.000


  Analytic derivatives to be used

  Time limit = Infinity

  Maximum range for interatomic potentials =    100000.000000 Angstroms

  General interatomic potentials :

--------------------------------------------------------------------------------
Atom  Types   Potential      Parameter       Value         Units   Cutoffs(Ang)
  1     2                                                            Min /  Max 
--------------------------------------------------------------------------------
Si   c O    s Buckingham    Buckingham A     1283.9070    eV        0.000 10.000
                            Buckingham rho  0.32052000    Ang       
                            Buckingham C     10.661580    eV*Ang^6  
--------------------------------------------------------------------------------
O    s O    s Buckingham    Buckingham A     22764.000    eV        0.000 12.000
                            Buckingham rho  0.14900000    Ang       
                            Buckingham C     27.879000    eV*Ang^6  
--------------------------------------------------------------------------------
O    c O    s Spring (c-s)  Spring k 2       74.920000    eV*Ang^-2 0.000  1.100
                            Spring k 4       0.0000000    eV*Ang^-4 
--------------------------------------------------------------------------------

  General Three-body potentials :

--------------------------------------------------------------------------------
  Atoms       Potential      Parameter       Value         Units   Cutoffs(Ang)
  1 / 2 / 3                                                          Min /  Max 
--------------------------------------------------------------------------------
Si    core    Harmonic      Three-body cnst  2.0972400    eV*rad^-2 0.000  1.900
O     shel                  Three-body angl  109.47000    degrees   0.000  1.900
O     shel                  Three-body k4    0.0000000    eV*rad^-4 0.000  3.500
                            Three-body k3    0.0000000    eV*rad^-3 
--------------------------------------------------------------------------------
Si    core    Harmonic      Three-body cnst  2.0972400    eV*rad^-2 0.000  1.900
O     shel                  Three-body angl  109.47000    degrees   0.000  1.900
õ(    shel                  Three-body k4    0.0000000    eV*rad^-4 0.000  3.500
                            Three-body k3    0.0000000    eV*rad^-3 
--------------------------------------------------------------------------------
Si    core    Harmonic      Three-body cnst  2.0972400    eV*rad^-2 0.000  1.900
õ(    shel                  Three-body angl  109.47000    degrees   0.000  1.900
õ(    shel                  Three-body k4    0.0000000    eV*rad^-4 0.000  3.500
                            Three-body k3    0.0000000    eV*rad^-3 
--------------------------------------------------------------------------------

********************************************************************************
*  Output for configuration   1 : ReferenceDataBase/8078629_111                *
********************************************************************************


  Components of energy : 

--------------------------------------------------------------------------------
  Interatomic potentials     =         937.46854604 eV    
  Three-body potentials      =           0.14721916 eV    
  Monopole - monopole (real) =       -3527.59596901 eV    
  Monopole - monopole (recip)=       -1213.30274924 eV    
  Monopole - monopole (total)=       -4740.89871825 eV    
--------------------------------------------------------------------------------
  Total lattice energy       =       -3803.28295305 eV    
--------------------------------------------------------------------------------
  Total lattice energy       =         -366958.6665 kJ/(mole unit cells)
--------------------------------------------------------------------------------


  Number of variables =      180

  Maximum number of calculations  =           500
  Maximum Hessian update interval =            10
  Maximum step size               =   0.100000000
  Maximum parameter tolerance     =   0.000010000
  Maximum function  tolerance     =   0.000010000
  Maximum gradient  tolerance     =   0.001000000
  Maximum gradient  component     =   0.010000000

  Newton-Raphson optimiser to be used

  BFGS hessian update to be used

  Lower half triangular hessian to be used

  Minimiser to switch to RFO
  When gradient norm is less than     0.080000

  Switch max step size to       0.30000000 when gnorm is less than     0.005000

  Shell only optimisation

  Dumpfile to be written after every cycle

  Start of bulk optimisation :

  Cycle:      0 Energy:     -3803.282953  Gnorm:      8.703136  CPU:    0.362
  ** Hessian calculated **
  Cycle:      1 Energy:     -3851.749368  Gnorm:      1.597036  CPU:    1.220
  ** Hessian calculated **
  Cycle:      2 Energy:     -3852.991660  Gnorm:      0.797087  CPU:    1.983
  Cycle:      3 Energy:     -3853.300570  Gnorm:      0.397485  CPU:    2.551
  Cycle:      4 Energy:     -3853.377248  Gnorm:      0.198484  CPU:    3.120
  Cycle:      5 Energy:     -3853.396351  Gnorm:      0.099178  CPU:    3.705
  Cycle:      6 Energy:     -3853.401119  Gnorm:      0.049573  CPU:    4.288
  ** Hessian has required structure
  ** Hessian has required structure
  Cycle:      7 Energy:     -3853.402309  Gnorm:      0.024785  CPU:    5.245
  ** Hessian has required structure
  Cycle:      8 Energy:     -3853.402607  Gnorm:      0.012392  CPU:    5.961
  ** Hessian has required structure
  Cycle:      9 Energy:     -3853.402681  Gnorm:      0.006196  CPU:    6.671
  ** Hessian has required structure
  Cycle:     10 Energy:     -3853.402694  Gnorm:      0.004337  CPU:    7.153
  ** Hessian has required structure
  Cycle:     11 Energy:     -3853.402706  Gnorm:      0.000805  CPU:    7.751
  ** Hessian has required structure


  **** Optimisation achieved ****


  Final energy =   -3853.40270625 eV      
  Final Gnorm  =       0.00008053

  Components of energy : 

--------------------------------------------------------------------------------
  Interatomic potentials     =        1050.45444548 eV    
  Three-body potentials      =           0.94039090 eV    
  Monopole - monopole (real) =       -3182.66546840 eV    
  Monopole - monopole (recip)=       -1722.13207423 eV    
  Monopole - monopole (total)=       -4904.79754263 eV    
--------------------------------------------------------------------------------
  Total lattice energy       =       -3853.40270625 eV    
--------------------------------------------------------------------------------
  Total lattice energy       =         -371794.4565 kJ/(mole unit cells)
--------------------------------------------------------------------------------

  Final fractional coordinates of atoms :

--------------------------------------------------------------------------------
   No.  Atomic        x           y          z          Radius
        Label       (Frac)      (Frac)     (Frac)       (Angs) 
--------------------------------------------------------------------------------
     1  Si    c     0.354761    0.887827    0.546514    0.000000
     2  Si    c     0.116254    0.311581    0.495560    0.000000
     3  O     c     0.281499    0.004929    0.533521    0.000000
     4  O     c     0.406406    0.860103    0.650039    0.000000
     5  O     c     0.288130    0.800026    0.551334    0.000000
     6  Si    c     0.498184    0.699559    0.303184    0.000000
     7  O     c     0.447729    0.888654    0.446043    0.000000
     8  O     c     0.584867    0.592927    0.312860    0.000000
     9  O     c     0.193925    0.201985    0.478259    0.000000
    10  O     c     0.129560    0.396202    0.386456    0.000000
    11  Si    c     0.548199    0.362822    0.878081    0.000000
    12  Si    c     0.497245    0.124314    0.301835    0.000000
    13  O     c     0.535206    0.289559    0.995184    0.000000
    14  O     c     0.651724    0.414467    0.850358    0.000000
    15  O     c     0.553020    0.296190    0.790280    0.000000
    16  Si    c     0.304869    0.506244    0.689814    0.000000
    17  O     c     0.447729    0.455789    0.878908    0.000000
    18  O     c     0.314545    0.592927    0.583181    0.000000
    19  O     c     0.479945    0.201985    0.192239    0.000000
    20  O     c     0.388141    0.137620    0.386456    0.000000
    21  Si    c     0.879766    0.556260    0.353076    0.000000
    22  Si    c     0.303521    0.505305    0.114569    0.000000
    23  O     c     0.996869    0.543266    0.279813    0.000000
    24  O     c     0.852043    0.659784    0.404721    0.000000
    25  O     c     0.791965    0.561080    0.286445    0.000000
    26  Si    c     0.691499    0.312930    0.496499    0.000000
    27  O     c     0.880594    0.455789    0.446043    0.000000
    28  O     c     0.584866    0.322605    0.583181    0.000000
    29  O     c     0.193925    0.488005    0.192239    0.000000
    30  O     c     0.388141    0.396202    0.127874    0.000000
    31  Si    c     0.116602    0.649667    0.446484    0.000000
    32  Si    c     0.692848    0.888175    0.497438    0.000000
    33  O     c     0.999499    0.722930    0.459477    0.000000
    34  O     c     0.144325    0.598022    0.342959    0.000000
    35  O     c     0.204403    0.716299    0.441663    0.000000
    36  O     c     0.115775    0.556700    0.546954    0.000000
    37  O     c     0.411502    0.419562    0.680138    0.000000
    38  O     c     0.802444    0.810504    0.514738    0.000000
    39  O     c     0.608227    0.874869    0.606542    0.000000
    40  Si    c     0.448169    0.124662    0.639922    0.000000
    41  Si    c     0.499123    0.700908    0.878429    0.000000
    42  O     c     0.461163    0.007560    0.713184    0.000000
    43  O     c     0.344644    0.152386    0.588277    0.000000
    44  O     c     0.443349    0.212463    0.706553    0.000000
    45  O     c     0.548640    0.123835    0.546954    0.000000
    46  O     c     0.681823    0.419562    0.409816    0.000000
    47  O     c     0.516424    0.810504    0.800758    0.000000
    48  O     c     0.608227    0.616287    0.865123    0.000000
    49  Si    c     0.641607    0.456229    0.114917    0.000000
    50  Si    c     0.880114    0.507184    0.691162    0.000000
    51  O     c     0.714870    0.469223    0.997814    0.000000
    52  O     c     0.589962    0.352705    0.142640    0.000000
    53  O     c     0.708238    0.451409    0.202717    0.000000
    54  O     c     0.548640    0.556700    0.114089    0.000000
    55  O     c     0.411502    0.689884    0.409816    0.000000
    56  O     c     0.802444    0.524484    0.800758    0.000000
    57  O     c     0.866809    0.616287    0.606542    0.000000
    58  Si    c     0.641607    0.124662    0.446484    0.000000
    59  Si    c     0.880114    0.700908    0.497438    0.000000
    60  O     c     0.714870    0.007560    0.459477    0.000000
    61  O     c     0.589962    0.152386    0.342959    0.000000
    62  O     c     0.708238    0.212463    0.441663    0.000000
    63  Si    c     0.498184    0.312930    0.689814    0.000000
    64  Si    c     0.448169    0.649667    0.114917    0.000000
    65  Si    c     0.499123    0.888175    0.691162    0.000000
    66  O     c     0.461163    0.722930    0.997814    0.000000
    67  O     c     0.344644    0.598022    0.142640    0.000000
    68  O     c     0.443349    0.716299    0.202717    0.000000
    69  Si    c     0.691499    0.506244    0.303184    0.000000
    70  Si    c     0.116602    0.456229    0.639922    0.000000
    71  Si    c     0.692848    0.507184    0.878429    0.000000
    72  O     c     0.999499    0.469223    0.713184    0.000000
    73  O     c     0.144325    0.352705    0.588277    0.000000
    74  O     c     0.204403    0.451409    0.706553    0.000000
    75  Si    c     0.304869    0.699559    0.496499    0.000000
    76  Si    c     0.879766    0.362822    0.546514    0.000000
    77  Si    c     0.303521    0.124314    0.495560    0.000000
    78  O     c     0.996869    0.289559    0.533521    0.000000
    79  O     c     0.852043    0.414467    0.650038    0.000000
    80  O     c     0.791965    0.296190    0.551334    0.000000
    81  Si    c     0.548199    0.887827    0.353076    0.000000
    82  Si    c     0.497245    0.311581    0.114569    0.000000
    83  O     c     0.535206    0.004929    0.279813    0.000000
    84  O     c     0.651724    0.860103    0.404721    0.000000
    85  O     c     0.553020    0.800026    0.286445    0.000000
    86  Si    c     0.354761    0.556260    0.878081    0.000000
    87  Si    c     0.116254    0.505305    0.301835    0.000000
    88  O     c     0.281499    0.543266    0.995184    0.000000
    89  O     c     0.406406    0.659784    0.850358    0.000000
    90  O     c     0.288130    0.561080    0.790280    0.000000
    91  O     s     0.291680    0.004994    0.530924    0.000000
    92  O     s     0.410666    0.866129    0.643130    0.000000
    93  O     s     0.297220    0.798933    0.544975    0.000000
    94  O     s     0.448630    0.888488    0.446945    0.000000
    95  O     s     0.587168    0.595229    0.310516    0.000000
    96  O     s     0.197597    0.205658    0.482196    0.000000
    97  O     s     0.126552    0.398972    0.389226    0.000000
    98  O     s     0.532610    0.299740    0.995248    0.000000
    99  O     s     0.644816    0.418726    0.856383    0.000000
   100  O     s     0.546660    0.305281    0.789187    0.000000
   101  O     s     0.448630    0.456691    0.878742    0.000000
   102  O     s     0.312201    0.595229    0.585483    0.000000
   103  O     s     0.483881    0.205658    0.195912    0.000000
   104  O     s     0.390912    0.134612    0.389226    0.000000
   105  O     s     0.996934    0.540670    0.289995    0.000000
   106  O     s     0.858069    0.652876    0.408980    0.000000
   107  O     s     0.790872    0.554720    0.295535    0.000000
   108  O     s     0.880428    0.456691    0.446945    0.000000
   109  O     s     0.587168    0.320261    0.585483    0.000000
   110  O     s     0.197597    0.491942    0.195912    0.000000
   111  O     s     0.390912    0.398972    0.124866    0.000000
   112  O     s     0.999435    0.712749    0.462073    0.000000
   113  O     s     0.138300    0.593763    0.349867    0.000000
   114  O     s     0.205496    0.707208    0.448023    0.000000
   115  O     s     0.115940    0.555798    0.546053    0.000000
   116  O     s     0.409200    0.417260    0.682482    0.000000
   117  O     s     0.798771    0.806831    0.510802    0.000000
   118  O     s     0.605457    0.877877    0.603771    0.000000
   119  O     s     0.463759    0.007495    0.703003    0.000000
   120  O     s     0.351553    0.146360    0.584017    0.000000
   121  O     s     0.449708    0.213556    0.697463    0.000000
   122  O     s     0.547738    0.124001    0.546053    0.000000
   123  O     s     0.684167    0.417260    0.407515    0.000000
   124  O     s     0.512487    0.806831    0.797085    0.000000
   125  O     s     0.605457    0.613517    0.868131    0.000000
   126  O     s     0.704688    0.471819    0.997749    0.000000
   127  O     s     0.585703    0.359613    0.136614    0.000000
   128  O     s     0.699148    0.457769    0.203811    0.000000
   129  O     s     0.547738    0.555798    0.114255    0.000000
   130  O     s     0.409200    0.692228    0.407515    0.000000
   131  O     s     0.798771    0.520547    0.797085    0.000000
   132  O     s     0.869817    0.613517    0.603771    0.000000
   133  O     s     0.704688    0.007495    0.462073    0.000000
   134  O     s     0.585703    0.146360    0.349867    0.000000
   135  O     s     0.699148    0.213556    0.448023    0.000000
   136  O     s     0.463759    0.712749    0.997749    0.000000
   137  O     s     0.351553    0.593763    0.136614    0.000000
   138  O     s     0.449708    0.707208    0.203811    0.000000
   139  O     s     0.999435    0.471819    0.703003    0.000000
   140  O     s     0.138300    0.359613    0.584017    0.000000
   141  O     s     0.205496    0.457769    0.697463    0.000000
   142  O     s     0.996934    0.299740    0.530924    0.000000
   143  O     s     0.858069    0.418726    0.643130    0.000000
   144  O     s     0.790872    0.305281    0.544975    0.000000
   145  O     s     0.532610    0.004994    0.289995    0.000000
   146  O     s     0.644816    0.866129    0.408980    0.000000
   147  O     s     0.546660    0.798933    0.295535    0.000000
   148  O     s     0.291680    0.540670    0.995248    0.000000
   149  O     s     0.410666    0.652876    0.856383    0.000000
   150  O     s     0.297220    0.554720    0.789187    0.000000
--------------------------------------------------------------------------------

  Final internal derivatives :

--------------------------------------------------------------------------------
   No.  Atomic          a             b             c           Radius
        Label          (eV)          (eV)          (eV)        (eV/Angs)
--------------------------------------------------------------------------------
      1 Si    c       0.000000      0.000000      0.000000      0.000000
      2 Si    c       0.000000      0.000000      0.000000      0.000000
      3 O     c       0.000000      0.000000      0.000000      0.000000
      4 O     c       0.000000      0.000000      0.000000      0.000000
      5 O     c       0.000000      0.000000      0.000000      0.000000
      6 Si    c       0.000000      0.000000      0.000000      0.000000
      7 O     c       0.000000      0.000000      0.000000      0.000000
      8 O     c       0.000000      0.000000      0.000000      0.000000
      9 O     c       0.000000      0.000000      0.000000      0.000000
     10 O     c       0.000000      0.000000      0.000000      0.000000
     11 Si    c       0.000000      0.000000      0.000000      0.000000
     12 Si    c       0.000000      0.000000      0.000000      0.000000
     13 O     c       0.000000      0.000000      0.000000      0.000000
     14 O     c       0.000000      0.000000      0.000000      0.000000
     15 O     c       0.000000      0.000000      0.000000      0.000000
     16 Si    c       0.000000      0.000000      0.000000      0.000000
     17 O     c       0.000000      0.000000      0.000000      0.000000
     18 O     c       0.000000      0.000000      0.000000      0.000000
     19 O     c       0.000000      0.000000      0.000000      0.000000
     20 O     c       0.000000      0.000000      0.000000      0.000000
     21 Si    c       0.000000      0.000000      0.000000      0.000000
     22 Si    c       0.000000      0.000000      0.000000      0.000000
     23 O     c       0.000000      0.000000      0.000000      0.000000
     24 O     c       0.000000      0.000000      0.000000      0.000000
     25 O     c       0.000000      0.000000      0.000000      0.000000
     26 Si    c       0.000000      0.000000      0.000000      0.000000
     27 O     c       0.000000      0.000000      0.000000      0.000000
     28 O     c       0.000000      0.000000      0.000000      0.000000
     29 O     c       0.000000      0.000000      0.000000      0.000000
     30 O     c       0.000000      0.000000      0.000000      0.000000
     31 Si    c       0.000000      0.000000      0.000000      0.000000
     32 Si    c       0.000000      0.000000      0.000000      0.000000
     33 O     c       0.000000      0.000000      0.000000      0.000000
     34 O     c       0.000000      0.000000      0.000000      0.000000
     35 O     c       0.000000      0.000000      0.000000      0.000000
     36 O     c       0.000000      0.000000      0.000000      0.000000
     37 O     c       0.000000      0.000000      0.000000      0.000000
     38 O     c       0.000000      0.000000      0.000000      0.000000
     39 O     c       0.000000      0.000000      0.000000      0.000000
     40 Si    c       0.000000      0.000000      0.000000      0.000000
     41 Si    c       0.000000      0.000000      0.000000      0.000000
     42 O     c       0.000000      0.000000      0.000000      0.000000
     43 O     c       0.000000      0.000000      0.000000      0.000000
     44 O     c       0.000000      0.000000      0.000000      0.000000
     45 O     c       0.000000      0.000000      0.000000      0.000000
     46 O     c       0.000000      0.000000      0.000000      0.000000
     47 O     c       0.000000      0.000000      0.000000      0.000000
     48 O     c       0.000000      0.000000      0.000000      0.000000
     49 Si    c       0.000000      0.000000      0.000000      0.000000
     50 Si    c       0.000000      0.000000      0.000000      0.000000
     51 O     c       0.000000      0.000000      0.000000      0.000000
     52 O     c       0.000000      0.000000      0.000000      0.000000
     53 O     c       0.000000      0.000000      0.000000      0.000000
     54 O     c       0.000000      0.000000      0.000000      0.000000
     55 O     c       0.000000      0.000000      0.000000      0.000000
     56 O     c       0.000000      0.000000      0.000000      0.000000
     57 O     c       0.000000      0.000000      0.000000      0.000000
     58 Si    c       0.000000      0.000000      0.000000      0.000000
     59 Si    c       0.000000      0.000000      0.000000      0.000000
     60 O     c       0.000000      0.000000      0.000000      0.000000
     61 O     c       0.000000      0.000000      0.000000      0.000000
     62 O     c       0.000000      0.000000      0.000000      0.000000
     63 Si    c       0.000000      0.000000      0.000000      0.000000
     64 Si    c       0.000000      0.000000      0.000000      0.000000
     65 Si    c       0.000000      0.000000      0.000000      0.000000
     66 O     c       0.000000      0.000000      0.000000      0.000000
     67 O     c       0.000000      0.000000      0.000000      0.000000
     68 O     c       0.000000      0.000000      0.000000      0.000000
     69 Si    c       0.000000      0.000000      0.000000      0.000000
     70 Si    c       0.000000      0.000000      0.000000      0.000000
     71 Si    c       0.000000      0.000000      0.000000      0.000000
     72 O     c       0.000000      0.000000      0.000000      0.000000
     73 O     c       0.000000      0.000000      0.000000      0.000000
     74 O     c       0.000000      0.000000      0.000000      0.000000
     75 Si    c       0.000000      0.000000      0.000000      0.000000
     76 Si    c       0.000000      0.000000      0.000000      0.000000
     77 Si    c       0.000000      0.000000      0.000000      0.000000
     78 O     c       0.000000      0.000000      0.000000      0.000000
     79 O     c       0.000000      0.000000      0.000000      0.000000
     80 O     c       0.000000      0.000000      0.000000      0.000000
     81 Si    c       0.000000      0.000000      0.000000      0.000000
     82 Si    c       0.000000      0.000000      0.000000      0.000000
     83 O     c       0.000000      0.000000      0.000000      0.000000
     84 O     c       0.000000      0.000000      0.000000      0.000000
     85 O     c       0.000000      0.000000      0.000000      0.000000
     86 Si    c       0.000000      0.000000      0.000000      0.000000
     87 Si    c       0.000000      0.000000      0.000000      0.000000
     88 O     c       0.000000      0.000000      0.000000      0.000000
     89 O     c       0.000000      0.000000      0.000000      0.000000
     90 O     c       0.000000      0.000000      0.000000      0.000000
     91 O     s      -0.002384     -0.000457     -0.000062      0.000000
     92 O     s      -0.001179     -0.001149      0.001104      0.000000
     93 O     s      -0.001583      0.000348      0.000924      0.000000
     94 O     s      -0.000559     -0.000330     -0.000559      0.000000
     95 O     s      -0.000300     -0.000300      0.000449      0.000000
     96 O     s      -0.001362     -0.001362     -0.001117      0.000000
     97 O     s       0.000321     -0.001056     -0.001056      0.000000
     98 O     s      -0.000062     -0.002384     -0.000457      0.000000
     99 O     s       0.001104     -0.001179     -0.001149      0.000000
    100 O     s       0.000924     -0.001583      0.000348      0.000000
    101 O     s      -0.000559     -0.000559     -0.000330      0.000000
    102 O     s       0.000449     -0.000300     -0.000300      0.000000
    103 O     s      -0.001117     -0.001362     -0.001362      0.000000
    104 O     s      -0.001056      0.000321     -0.001056      0.000000
    105 O     s      -0.000457     -0.000062     -0.002384      0.000000
    106 O     s      -0.001149      0.001104     -0.001179      0.000000
    107 O     s       0.000348      0.000924     -0.001583      0.000000
    108 O     s      -0.000330     -0.000559     -0.000559      0.000000
    109 O     s      -0.000300      0.000449     -0.000300      0.000000
    110 O     s      -0.001362     -0.001117     -0.001362      0.000000
    111 O     s      -0.001056     -0.001056      0.000321      0.000000
    112 O     s       0.000457      0.002384      0.000062      0.000000
    113 O     s       0.001149      0.001179     -0.001104      0.000000
    114 O     s      -0.000348      0.001583     -0.000924      0.000000
    115 O     s       0.000330      0.000559      0.000559      0.000000
    116 O     s       0.000300      0.000300     -0.000449      0.000000
    117 O     s       0.001362      0.001362      0.001117      0.000000
    118 O     s       0.001056     -0.000321      0.001056      0.000000
    119 O     s       0.000062      0.000457      0.002384      0.000000
    120 O     s      -0.001104      0.001149      0.001179      0.000000
    121 O     s      -0.000924     -0.000348      0.001583      0.000000
    122 O     s       0.000559      0.000330      0.000559      0.000000
    123 O     s      -0.000449      0.000300      0.000300      0.000000
    124 O     s       0.001117      0.001362      0.001362      0.000000
    125 O     s       0.001056      0.001056     -0.000321      0.000000
    126 O     s       0.002384      0.000062      0.000457      0.000000
    127 O     s       0.001179     -0.001104      0.001149      0.000000
    128 O     s       0.001583     -0.000924     -0.000348      0.000000
    129 O     s       0.000559      0.000559      0.000330      0.000000
    130 O     s       0.000300     -0.000449      0.000300      0.000000
    131 O     s       0.001362      0.001117      0.001362      0.000000
    132 O     s      -0.000321      0.001056      0.001056      0.000000
    133 O     s       0.002384      0.000457      0.000062      0.000000
    134 O     s       0.001179      0.001149     -0.001104      0.000000
    135 O     s       0.001583     -0.000348     -0.000924      0.000000
    136 O     s       0.000062      0.002384      0.000457      0.000000
    137 O     s      -0.001104      0.001179      0.001149      0.000000
    138 O     s      -0.000924      0.001583     -0.000348      0.000000
    139 O     s       0.000457      0.000062      0.002384      0.000000
    140 O     s       0.001149     -0.001104      0.001179      0.000000
    141 O     s      -0.000348     -0.000924      0.001583      0.000000
    142 O     s      -0.000457     -0.002384     -0.000062      0.000000
    143 O     s      -0.001149     -0.001179      0.001104      0.000000
    144 O     s       0.000348     -0.001583      0.000924      0.000000
    145 O     s      -0.000062     -0.000457     -0.002384      0.000000
    146 O     s       0.001104     -0.001149     -0.001179      0.000000
    147 O     s       0.000924      0.000348     -0.001583      0.000000
    148 O     s      -0.002384     -0.000062     -0.000457      0.000000
    149 O     s      -0.001179      0.001104     -0.001149      0.000000
    150 O     s      -0.001583      0.000924      0.000348      0.000000
--------------------------------------------------------------------------------
  Maximum abs         0.002384      0.002384      0.002384      0.000000
--------------------------------------------------------------------------------


  Time to end of optimisation =       8.4352 seconds


  Peak dynamic memory used =       3.53 MB 


  Timing analysis for GULP :

--------------------------------------------------------------------------------
  Task / Subroutine                                          Time (Seconds)
--------------------------------------------------------------------------------
  Calculation of reciprocal space energy and derivatives          0.8051
  Calculation of real space energy and derivatives                7.2669
  Calculation of three-body energy and derivatives                0.2365
  Calculation and manipulation of Hessian matrix                  0.0931
  Calculation of matrix inversion                                 0.0021
--------------------------------------------------------------------------------
  Total CPU time                                                  8.4353
--------------------------------------------------------------------------------


  Dump file written as ReferenceDataBase/8078629_111.grs
  CIF file written as ReferenceDataBase/8078629_111_opt.cif


  Job Finished at 00:41.02  6th February   2024                               

