********************************************************************************
*                       GENERAL UTILITY LATTICE PROGRAM                        *
*                                 Julian Gale                                  *
*                       Curtin Institute for Computation                       *
*                    School of Molecular and Life Sciences                     *
*                    Curtin University, Western Australia                      *
********************************************************************************
* Version = 6.1.2 * Last modified =   3rd November 2022                        *
********************************************************************************
*  optimise     - perform optimisation run                                     *
*  conp         - constant pressure calculation                                *
*  nosymmetry   - turn off symmetry after initial structure generation         *
********************************************************************************

  Job Started  at 18:40.03 20th April      2023                               

  Number of CPUs =     8


  Total number of configurations input =      1

********************************************************************************
*  Input for Configuration =   1 : ReferenceDataBase/8194023_111               *
********************************************************************************

  Formula = Si52O104                                                    

  Number of irreducible atoms/shells =     260


  Total number atoms/shells =     260

  Dimensionality = 3               :  Bulk   



  Cartesian lattice vectors (Angstroms) :

       13.546500    0.000000    0.000000
        0.000000   21.213200    0.000000
        0.000000    0.000000   11.693700

  Cell parameters (Angstroms/Degrees):

  a =      13.5465    alpha =  90.0000
  b =      21.2132    beta  =  90.0000
  c =      11.6937    gamma =  90.0000

  Initial cell volume =        3360.355584 Angs**3

  Temperature of configuration =   0.00     K 

  Pressure of configuration =         0.000 GPa 

  Fractional coordinates of asymmetric unit :

--------------------------------------------------------------------------------
   No.  Atomic       x           y          z         Charge      Occupancy
        Label      (Frac)      (Frac)     (Frac)        (e)         (Frac)  
--------------------------------------------------------------------------------
      1 Si    c    0.211006 *  0.125073 *  0.367085 *   4.00000    1.000000    
      2 Si    c    0.886669 *  0.249644 *  0.367662 *   4.00000    1.000000    
      3 Si    c    0.608123 *  0.192550 *  0.247680 *   4.00000    1.000000    
      4 Si    c    0.610587 *  0.570219 *  0.241609 *   4.00000    1.000000    
      5 Si    c    0.297384 *  0.311954 *  0.637063 *   4.00000    1.000000    
      6 O     c    0.135825 *  0.180045 *  0.330155 *   0.86902    1.000000    
      7 O     c    0.316607 *  0.137984 *  0.308358 *   0.86902    1.000000    
      8 O     c    0.164922 *  0.059909 *  0.321996 *   0.86902    1.000000    
      9 O     c    0.804558 *  0.300410 *  0.329418 *   0.86902    1.000000    
     10 O     c    0.649065 *  0.586486 *  0.114551 *   0.86902    1.000000    
     11 O     c    0.643655 *  0.196653 *  0.115615 *   0.86902    1.000000    
     12 O     c    0.621055 *  0.261034 *  0.305825 *   0.86902    1.000000    
     13 O     c    0.662130 *  0.615259 *  0.333650 *   0.86902    1.000000    
     14 Si    c    0.611347 *  0.623042 *  0.002334 *   4.00000    1.000000    
     15 Si    c    0.377570 *  0.234024 *  0.002334 *   4.00000    1.000000    
     16 O     c    0.656726 *  0.693398 *  0.002334 *   0.86902    1.000000    
     17 Si    c    0.882366 *  0.998875 *  0.638394 *   4.00000    1.000000    
     18 O     c    0.228726 *  0.124001 *  0.502334 *   0.86902    1.000000    
     19 O     c    0.897894 *  0.251129 *  0.502334 *   0.86902    1.000000    
     20 O     c    0.310814 *  0.302319 *  0.502334 *   0.86902    1.000000    
     21 O     c    0.994058 *  0.264489 *  0.311609 *   0.86902    1.000000    
     22 O     c    0.494058 *  0.624289 *  0.002334 *   0.86902    1.000000    
     23 O     c    0.494058 *  0.242789 *  0.002334 *   0.86902    1.000000    
     24 O     c    0.494058 *  0.172821 *  0.256957 *   0.86902    1.000000    
     25 O     c    0.494058 *  0.580056 *  0.250409 *   0.86902    1.000000    
     26 O     c    0.887555 *  0.998875 *  0.502334 *   0.86902    1.000000    
     27 O     c    0.994058 *  0.998875 *  0.687613 *   0.86902    1.000000    
     28 O     c    0.640787 *  0.498875 *  0.271557 *   0.86902    1.000000    
     29 Si    c    0.777110 *  0.872676 *  0.367086 *   4.00000    1.000000    
     30 Si    c    0.101448 *  0.748105 *  0.367662 *   4.00000    1.000000    
     31 Si    c    0.379993 *  0.805199 *  0.247680 *   4.00000    1.000000    
     32 Si    c    0.377529 *  0.427530 *  0.241609 *   4.00000    1.000000    
     33 Si    c    0.690732 *  0.685795 *  0.637063 *   4.00000    1.000000    
     34 O     c    0.852291 *  0.817704 *  0.330155 *   0.86902    1.000000    
     35 O     c    0.671510 *  0.859765 *  0.308358 *   0.86902    1.000000    
     36 O     c    0.823194 *  0.937840 *  0.321996 *   0.86902    1.000000    
     37 O     c    0.183558 *  0.697339 *  0.329418 *   0.86902    1.000000    
     38 O     c    0.339052 *  0.411263 *  0.114551 *   0.86902    1.000000    
     39 O     c    0.344461 *  0.801096 *  0.115615 *   0.86902    1.000000    
     40 O     c    0.367062 *  0.736715 *  0.305825 *   0.86902    1.000000    
     41 O     c    0.325986 *  0.382490 *  0.333650 *   0.86902    1.000000    
     42 Si    c    0.376770 *  0.374707 *  0.002334 *   4.00000    1.000000    
     43 Si    c    0.610546 *  0.763725 *  0.002334 *   4.00000    1.000000    
     44 O     c    0.331391 *  0.304351 *  0.002334 *   0.86902    1.000000    
     45 Si    c    0.105750 *  0.998875 *  0.638393 *   4.00000    1.000000    
     46 O     c    0.759391 *  0.873748 *  0.502334 *   0.86902    1.000000    
     47 O     c    0.090222 *  0.746620 *  0.502334 *   0.86902    1.000000    
     48 O     c    0.677302 *  0.695430 *  0.502334 *   0.86902    1.000000    
     49 O     c    0.994058 *  0.733260 *  0.311609 *   0.86902    1.000000    
     50 O     c    0.494058 *  0.373460 *  0.002334 *   0.86902    1.000000    
     51 O     c    0.494058 *  0.754960 *  0.002334 *   0.86902    1.000000    
     52 O     c    0.494058 *  0.824928 *  0.256957 *   0.86902    1.000000    
     53 O     c    0.494058 *  0.417693 *  0.250409 *   0.86902    1.000000    
     54 O     c    0.100561 *  0.998874 *  0.502334 *   0.86902    1.000000    
     55 O     c    0.347330 *  0.498875 *  0.271557 *   0.86902    1.000000    
     56 Si    c    0.211006 *  0.872676 *  0.637583 *   4.00000    1.000000    
     57 Si    c    0.886669 *  0.748105 *  0.637007 *   4.00000    1.000000    
     58 Si    c    0.608123 *  0.805199 *  0.756989 *   4.00000    1.000000    
     59 Si    c    0.610587 *  0.427530 *  0.763060 *   4.00000    1.000000    
     60 Si    c    0.297384 *  0.685795 *  0.367605 *   4.00000    1.000000    
     61 O     c    0.135825 *  0.817704 *  0.674513 *   0.86902    1.000000    
     62 O     c    0.316607 *  0.859765 *  0.696311 *   0.86902    1.000000    
     63 O     c    0.164922 *  0.937840 *  0.682673 *   0.86902    1.000000    
     64 O     c    0.804558 *  0.697339 *  0.675250 *   0.86902    1.000000    
     65 O     c    0.649065 *  0.411263 *  0.890118 *   0.86902    1.000000    
     66 O     c    0.643655 *  0.801096 *  0.889053 *   0.86902    1.000000    
     67 O     c    0.621055 *  0.736715 *  0.698843 *   0.86902    1.000000    
     68 O     c    0.662130 *  0.382490 *  0.671019 *   0.86902    1.000000    
     69 Si    c    0.611347 *  0.374707 *  0.002334 *   4.00000    1.000000    
     70 Si    c    0.377570 *  0.763724 *  0.002334 *   4.00000    1.000000    
     71 O     c    0.656726 *  0.304352 *  0.002334 *   0.86902    1.000000    
     72 Si    c    0.882366 *  0.998875 *  0.366275 *   4.00000    1.000000    
     73 O     c    0.228726 *  0.873748 *  0.502334 *   0.86902    1.000000    
     74 O     c    0.897894 *  0.746621 *  0.502334 *   0.86902    1.000000    
     75 O     c    0.310814 *  0.695430 *  0.502334 *   0.86902    1.000000    
     76 O     c    0.994058 *  0.733260 *  0.693059 *   0.86902    1.000000    
     77 O     c    0.494058 *  0.824928 *  0.747712 *   0.86902    1.000000    
     78 O     c    0.494058 *  0.417693 *  0.754259 *   0.86902    1.000000    
     79 O     c    0.994058 *  0.998875 *  0.317056 *   0.86902    1.000000    
     80 O     c    0.640787 *  0.498875 *  0.733112 *   0.86902    1.000000    
     81 Si    c    0.777110 *  0.125073 *  0.637583 *   4.00000    1.000000    
     82 Si    c    0.101448 *  0.249644 *  0.637007 *   4.00000    1.000000    
     83 Si    c    0.379993 *  0.192550 *  0.756989 *   4.00000    1.000000    
     84 Si    c    0.377529 *  0.570219 *  0.763060 *   4.00000    1.000000    
     85 Si    c    0.690732 *  0.311954 *  0.367606 *   4.00000    1.000000    
     86 O     c    0.852291 *  0.180045 *  0.674513 *   0.86902    1.000000    
     87 O     c    0.671510 *  0.137984 *  0.696311 *   0.86902    1.000000    
     88 O     c    0.823194 *  0.059909 *  0.682673 *   0.86902    1.000000    
     89 O     c    0.183558 *  0.300410 *  0.675250 *   0.86902    1.000000    
     90 O     c    0.339052 *  0.586486 *  0.890117 *   0.86902    1.000000    
     91 O     c    0.344461 *  0.196653 *  0.889053 *   0.86902    1.000000    
     92 O     c    0.367062 *  0.261034 *  0.698843 *   0.86902    1.000000    
     93 O     c    0.325986 *  0.615259 *  0.671019 *   0.86902    1.000000    
     94 Si    c    0.376770 *  0.623042 *  0.002334 *   4.00000    1.000000    
     95 Si    c    0.610546 *  0.234025 *  0.002334 *   4.00000    1.000000    
     96 O     c    0.331391 *  0.693397 *  0.002334 *   0.86902    1.000000    
     97 Si    c    0.105750 *  0.998875 *  0.366275 *   4.00000    1.000000    
     98 O     c    0.759390 *  0.124001 *  0.502334 *   0.86902    1.000000    
     99 O     c    0.090222 *  0.251128 *  0.502334 *   0.86902    1.000000    
    100 O     c    0.677302 *  0.302319 *  0.502334 *   0.86902    1.000000    
    101 O     c    0.994058 *  0.264489 *  0.693059 *   0.86902    1.000000    
    102 O     c    0.494058 *  0.172821 *  0.747712 *   0.86902    1.000000    
    103 O     c    0.494058 *  0.580056 *  0.754259 *   0.86902    1.000000    
    104 O     c    0.347330 *  0.498875 *  0.733112 *   0.86902    1.000000    
    105 Si    c    0.777110 *  0.872676 *  0.637583 *   4.00000    1.000000    
    106 Si    c    0.101448 *  0.748105 *  0.637007 *   4.00000    1.000000    
    107 Si    c    0.379993 *  0.805199 *  0.756989 *   4.00000    1.000000    
    108 Si    c    0.377529 *  0.427530 *  0.763060 *   4.00000    1.000000    
    109 Si    c    0.690732 *  0.685795 *  0.367606 *   4.00000    1.000000    
    110 O     c    0.852291 *  0.817704 *  0.674513 *   0.86902    1.000000    
    111 O     c    0.671510 *  0.859765 *  0.696311 *   0.86902    1.000000    
    112 O     c    0.823194 *  0.937840 *  0.682673 *   0.86902    1.000000    
    113 O     c    0.183558 *  0.697339 *  0.675251 *   0.86902    1.000000    
    114 O     c    0.339052 *  0.411263 *  0.890117 *   0.86902    1.000000    
    115 O     c    0.344461 *  0.801096 *  0.889053 *   0.86902    1.000000    
    116 O     c    0.367062 *  0.736715 *  0.698843 *   0.86902    1.000000    
    117 O     c    0.325986 *  0.382490 *  0.671019 *   0.86902    1.000000    
    118 Si    c    0.211006 *  0.125073 *  0.637583 *   4.00000    1.000000    
    119 Si    c    0.886669 *  0.249644 *  0.637007 *   4.00000    1.000000    
    120 Si    c    0.608123 *  0.192550 *  0.756989 *   4.00000    1.000000    
    121 Si    c    0.610587 *  0.570219 *  0.763060 *   4.00000    1.000000    
    122 Si    c    0.297384 *  0.311954 *  0.367606 *   4.00000    1.000000    
    123 O     c    0.135825 *  0.180045 *  0.674513 *   0.86902    1.000000    
    124 O     c    0.316607 *  0.137984 *  0.696311 *   0.86902    1.000000    
    125 O     c    0.164922 *  0.059909 *  0.682673 *   0.86902    1.000000    
    126 O     c    0.804558 *  0.300410 *  0.675251 *   0.86902    1.000000    
    127 O     c    0.649065 *  0.586486 *  0.890118 *   0.86902    1.000000    
    128 O     c    0.643655 *  0.196653 *  0.889053 *   0.86902    1.000000    
    129 O     c    0.621055 *  0.261034 *  0.698843 *   0.86902    1.000000    
    130 O     c    0.662130 *  0.615259 *  0.671019 *   0.86902    1.000000    
    131 Si    c    0.777110 *  0.125073 *  0.367086 *   4.00000    1.000000    
    132 Si    c    0.101448 *  0.249644 *  0.367662 *   4.00000    1.000000    
    133 Si    c    0.379993 *  0.192550 *  0.247680 *   4.00000    1.000000    
    134 Si    c    0.377529 *  0.570219 *  0.241609 *   4.00000    1.000000    
    135 Si    c    0.690732 *  0.311954 *  0.637063 *   4.00000    1.000000    
    136 O     c    0.852291 *  0.180045 *  0.330156 *   0.86902    1.000000    
    137 O     c    0.671510 *  0.137984 *  0.308358 *   0.86902    1.000000    
    138 O     c    0.823194 *  0.059909 *  0.321996 *   0.86902    1.000000    
    139 O     c    0.183558 *  0.300410 *  0.329418 *   0.86902    1.000000    
    140 O     c    0.339052 *  0.586486 *  0.114551 *   0.86902    1.000000    
    141 O     c    0.344461 *  0.196653 *  0.115615 *   0.86902    1.000000    
    142 O     c    0.367062 *  0.261034 *  0.305825 *   0.86902    1.000000    
    143 O     c    0.325986 *  0.615259 *  0.333650 *   0.86902    1.000000    
    144 Si    c    0.211006 *  0.872676 *  0.367086 *   4.00000    1.000000    
    145 Si    c    0.886669 *  0.748105 *  0.367662 *   4.00000    1.000000    
    146 Si    c    0.608123 *  0.805199 *  0.247680 *   4.00000    1.000000    
    147 Si    c    0.610587 *  0.427530 *  0.241609 *   4.00000    1.000000    
    148 Si    c    0.297384 *  0.685795 *  0.637063 *   4.00000    1.000000    
    149 O     c    0.135825 *  0.817704 *  0.330156 *   0.86902    1.000000    
    150 O     c    0.316607 *  0.859765 *  0.308358 *   0.86902    1.000000    
    151 O     c    0.164922 *  0.937840 *  0.321996 *   0.86902    1.000000    
    152 O     c    0.804558 *  0.697339 *  0.329418 *   0.86902    1.000000    
    153 O     c    0.649065 *  0.411263 *  0.114551 *   0.86902    1.000000    
    154 O     c    0.643655 *  0.801096 *  0.115615 *   0.86902    1.000000    
    155 O     c    0.621055 *  0.736715 *  0.305825 *   0.86902    1.000000    
    156 O     c    0.662130    0.382490    0.333650     0.86902    1.000000    
    157 O     s    0.135825 *  0.180045 *  0.330155 *  -2.86902    1.000000    
    158 O     s    0.316607 *  0.137984 *  0.308358 *  -2.86902    1.000000    
    159 O     s    0.164922 *  0.059909 *  0.321996 *  -2.86902    1.000000    
    160 O     s    0.804558 *  0.300410 *  0.329418 *  -2.86902    1.000000    
    161 O     s    0.649065 *  0.586486 *  0.114551 *  -2.86902    1.000000    
    162 O     s    0.643655 *  0.196653 *  0.115615 *  -2.86902    1.000000    
    163 O     s    0.621055 *  0.261034 *  0.305825 *  -2.86902    1.000000    
    164 O     s    0.662130 *  0.615259 *  0.333650 *  -2.86902    1.000000    
    165 O     s    0.656726 *  0.693398 *  0.002334 *  -2.86902    1.000000    
    166 O     s    0.228726 *  0.124001 *  0.502334 *  -2.86902    1.000000    
    167 O     s    0.897894 *  0.251129 *  0.502334 *  -2.86902    1.000000    
    168 O     s    0.310814 *  0.302319 *  0.502334 *  -2.86902    1.000000    
    169 O     s    0.994058 *  0.264489 *  0.311609 *  -2.86902    1.000000    
    170 O     s    0.494058 *  0.624289 *  0.002334 *  -2.86902    1.000000    
    171 O     s    0.494058 *  0.242789 *  0.002334 *  -2.86902    1.000000    
    172 O     s    0.494058 *  0.172821 *  0.256957 *  -2.86902    1.000000    
    173 O     s    0.494058 *  0.580056 *  0.250409 *  -2.86902    1.000000    
    174 O     s    0.887555 *  0.998875 *  0.502334 *  -2.86902    1.000000    
    175 O     s    0.994058 *  0.998875 *  0.687613 *  -2.86902    1.000000    
    176 O     s    0.640787 *  0.498875 *  0.271557 *  -2.86902    1.000000    
    177 O     s    0.852291 *  0.817704 *  0.330155 *  -2.86902    1.000000    
    178 O     s    0.671510 *  0.859765 *  0.308358 *  -2.86902    1.000000    
    179 O     s    0.823194 *  0.937840 *  0.321996 *  -2.86902    1.000000    
    180 O     s    0.183558 *  0.697339 *  0.329418 *  -2.86902    1.000000    
    181 O     s    0.339052 *  0.411263 *  0.114551 *  -2.86902    1.000000    
    182 O     s    0.344461 *  0.801096 *  0.115615 *  -2.86902    1.000000    
    183 O     s    0.367062 *  0.736715 *  0.305825 *  -2.86902    1.000000    
    184 O     s    0.325986 *  0.382490 *  0.333650 *  -2.86902    1.000000    
    185 O     s    0.331391 *  0.304351 *  0.002334 *  -2.86902    1.000000    
    186 O     s    0.759391 *  0.873748 *  0.502334 *  -2.86902    1.000000    
    187 O     s    0.090222 *  0.746620 *  0.502334 *  -2.86902    1.000000    
    188 O     s    0.677302 *  0.695430 *  0.502334 *  -2.86902    1.000000    
    189 O     s    0.994058 *  0.733260 *  0.311609 *  -2.86902    1.000000    
    190 O     s    0.494058 *  0.373460 *  0.002334 *  -2.86902    1.000000    
    191 O     s    0.494058 *  0.754960 *  0.002334 *  -2.86902    1.000000    
    192 O     s    0.494058 *  0.824928 *  0.256957 *  -2.86902    1.000000    
    193 O     s    0.494058 *  0.417693 *  0.250409 *  -2.86902    1.000000    
    194 O     s    0.100561 *  0.998874 *  0.502334 *  -2.86902    1.000000    
    195 O     s    0.347330 *  0.498875 *  0.271557 *  -2.86902    1.000000    
    196 O     s    0.135825 *  0.817704 *  0.674513 *  -2.86902    1.000000    
    197 O     s    0.316607 *  0.859765 *  0.696311 *  -2.86902    1.000000    
    198 O     s    0.164922 *  0.937840 *  0.682673 *  -2.86902    1.000000    
    199 O     s    0.804558 *  0.697339 *  0.675250 *  -2.86902    1.000000    
    200 O     s    0.649065 *  0.411263 *  0.890118 *  -2.86902    1.000000    
    201 O     s    0.643655 *  0.801096 *  0.889053 *  -2.86902    1.000000    
    202 O     s    0.621055 *  0.736715 *  0.698843 *  -2.86902    1.000000    
    203 O     s    0.662130 *  0.382490 *  0.671019 *  -2.86902    1.000000    
    204 O     s    0.656726 *  0.304352 *  0.002334 *  -2.86902    1.000000    
    205 O     s    0.228726 *  0.873748 *  0.502334 *  -2.86902    1.000000    
    206 O     s    0.897894 *  0.746621 *  0.502334 *  -2.86902    1.000000    
    207 O     s    0.310814 *  0.695430 *  0.502334 *  -2.86902    1.000000    
    208 O     s    0.994058 *  0.733260 *  0.693059 *  -2.86902    1.000000    
    209 O     s    0.494058 *  0.824928 *  0.747712 *  -2.86902    1.000000    
    210 O     s    0.494058 *  0.417693 *  0.754259 *  -2.86902    1.000000    
    211 O     s    0.994058 *  0.998875 *  0.317056 *  -2.86902    1.000000    
    212 O     s    0.640787 *  0.498875 *  0.733112 *  -2.86902    1.000000    
    213 O     s    0.852291 *  0.180045 *  0.674513 *  -2.86902    1.000000    
    214 O     s    0.671510 *  0.137984 *  0.696311 *  -2.86902    1.000000    
    215 O     s    0.823194 *  0.059909 *  0.682673 *  -2.86902    1.000000    
    216 O     s    0.183558 *  0.300410 *  0.675250 *  -2.86902    1.000000    
    217 O     s    0.339052 *  0.586486 *  0.890117 *  -2.86902    1.000000    
    218 O     s    0.344461 *  0.196653 *  0.889053 *  -2.86902    1.000000    
    219 O     s    0.367062 *  0.261034 *  0.698843 *  -2.86902    1.000000    
    220 O     s    0.325986 *  0.615259 *  0.671019 *  -2.86902    1.000000    
    221 O     s    0.331391 *  0.693397 *  0.002334 *  -2.86902    1.000000    
    222 O     s    0.759390 *  0.124001 *  0.502334 *  -2.86902    1.000000    
    223 O     s    0.090222 *  0.251128 *  0.502334 *  -2.86902    1.000000    
    224 O     s    0.677302 *  0.302319 *  0.502334 *  -2.86902    1.000000    
    225 O     s    0.994058 *  0.264489 *  0.693059 *  -2.86902    1.000000    
    226 O     s    0.494058 *  0.172821 *  0.747712 *  -2.86902    1.000000    
    227 O     s    0.494058 *  0.580056 *  0.754259 *  -2.86902    1.000000    
    228 O     s    0.347330 *  0.498875 *  0.733112 *  -2.86902    1.000000    
    229 O     s    0.852291 *  0.817704 *  0.674513 *  -2.86902    1.000000    
    230 O     s    0.671510 *  0.859765 *  0.696311 *  -2.86902    1.000000    
    231 O     s    0.823194 *  0.937840 *  0.682673 *  -2.86902    1.000000    
    232 O     s    0.183558 *  0.697339 *  0.675251 *  -2.86902    1.000000    
    233 O     s    0.339052 *  0.411263 *  0.890117 *  -2.86902    1.000000    
    234 O     s    0.344461 *  0.801096 *  0.889053 *  -2.86902    1.000000    
    235 O     s    0.367062 *  0.736715 *  0.698843 *  -2.86902    1.000000    
    236 O     s    0.325986 *  0.382490 *  0.671019 *  -2.86902    1.000000    
    237 O     s    0.135825 *  0.180045 *  0.674513 *  -2.86902    1.000000    
    238 O     s    0.316607 *  0.137984 *  0.696311 *  -2.86902    1.000000    
    239 O     s    0.164922 *  0.059909 *  0.682673 *  -2.86902    1.000000    
    240 O     s    0.804558 *  0.300410 *  0.675251 *  -2.86902    1.000000    
    241 O     s    0.649065 *  0.586486 *  0.890118 *  -2.86902    1.000000    
    242 O     s    0.643655 *  0.196653 *  0.889053 *  -2.86902    1.000000    
    243 O     s    0.621055 *  0.261034 *  0.698843 *  -2.86902    1.000000    
    244 O     s    0.662130 *  0.615259 *  0.671019 *  -2.86902    1.000000    
    245 O     s    0.852291 *  0.180045 *  0.330156 *  -2.86902    1.000000    
    246 O     s    0.671510 *  0.137984 *  0.308358 *  -2.86902    1.000000    
    247 O     s    0.823194 *  0.059909 *  0.321996 *  -2.86902    1.000000    
    248 O     s    0.183558 *  0.300410 *  0.329418 *  -2.86902    1.000000    
    249 O     s    0.339052 *  0.586486 *  0.114551 *  -2.86902    1.000000    
    250 O     s    0.344461 *  0.196653 *  0.115615 *  -2.86902    1.000000    
    251 O     s    0.367062 *  0.261034 *  0.305825 *  -2.86902    1.000000    
    252 O     s    0.325986 *  0.615259 *  0.333650 *  -2.86902    1.000000    
    253 O     s    0.135825 *  0.817704 *  0.330156 *  -2.86902    1.000000    
    254 O     s    0.316607 *  0.859765 *  0.308358 *  -2.86902    1.000000    
    255 O     s    0.164922 *  0.937840 *  0.321996 *  -2.86902    1.000000    
    256 O     s    0.804558 *  0.697339 *  0.329418 *  -2.86902    1.000000    
    257 O     s    0.649065 *  0.411263 *  0.114551 *  -2.86902    1.000000    
    258 O     s    0.643655 *  0.801096 *  0.115615 *  -2.86902    1.000000    
    259 O     s    0.621055 *  0.736715 *  0.305825 *  -2.86902    1.000000    
    260 O     s    0.662130 *  0.382490 *  0.333650 *  -2.86902    1.000000    
--------------------------------------------------------------------------------



********************************************************************************
*  General input information                                                   *
********************************************************************************

  Species output for all configurations : 

--------------------------------------------------------------------------------
  Species    Type    Atomic    Atomic    Charge       Radii (Angs)     Library
                     Number     Mass       (e)     Cova   Ionic  VDW   Symbol
--------------------------------------------------------------------------------
    O        Core        8      16.00   0.869020   0.730  0.000  1.360 O        
    O        Shell       8       0.00  -2.869020   0.730  0.000  0.000 O        
    Si       Core       14      28.09   4.000000   1.200  0.000  2.100 Si       
--------------------------------------------------------------------------------


  Lattice summation method               =    Ewald          (3-D)
                                         =    Parry          (2-D)
                                         =    Saunders et al (1-D)
  Accuracy factor for lattice sums       =   12.000


  Analytic derivatives to be used

  Time limit = Infinity

  Maximum range for interatomic potentials =    100000.000000 Angstroms

  General interatomic potentials :

--------------------------------------------------------------------------------
Atom  Types   Potential      Parameter       Value         Units   Cutoffs(Ang)
  1     2                                                            Min /  Max 
--------------------------------------------------------------------------------
Si   c O    s Buckingham    Buckingham A     1283.9070    eV        0.000 10.000
                            Buckingham rho  0.32052000    Ang       
                            Buckingham C     10.661580    eV*Ang^6  
--------------------------------------------------------------------------------
O    s O    s Buckingham    Buckingham A     22764.000    eV        0.000 12.000
                            Buckingham rho  0.14900000    Ang       
                            Buckingham C     27.879000    eV*Ang^6  
--------------------------------------------------------------------------------
O    c O    s Spring (c-s)  Spring k 2       74.920000    eV*Ang^-2 0.000  1.100
                            Spring k 4       0.0000000    eV*Ang^-4 
--------------------------------------------------------------------------------

  General Three-body potentials :

--------------------------------------------------------------------------------
  Atoms       Potential      Parameter       Value         Units   Cutoffs(Ang)
  1 / 2 / 3                                                          Min /  Max 
--------------------------------------------------------------------------------
Si    core    Harmonic      Three-body cnst  2.0972400    eV*rad^-2 0.000  1.900
O     shel                  Three-body angl  109.47000    degrees   0.000  1.900
O     shel                  Three-body k4    0.0000000    eV*rad^-4 0.000  3.500
                            Three-body k3    0.0000000    eV*rad^-3 
--------------------------------------------------------------------------------
Si    core    Harmonic      Three-body cnst  2.0972400    eV*rad^-2 0.000  1.900
O     shel                  Three-body angl  109.47000    degrees   0.000  1.900
õ(    shel                  Three-body k4    0.0000000    eV*rad^-4 0.000  3.500
                            Three-body k3    0.0000000    eV*rad^-3 
--------------------------------------------------------------------------------
Si    core    Harmonic      Three-body cnst  2.0972400    eV*rad^-2 0.000  1.900
õ(    shel                  Three-body angl  109.47000    degrees   0.000  1.900
õ(    shel                  Three-body k4    0.0000000    eV*rad^-4 0.000  3.500
                            Three-body k3    0.0000000    eV*rad^-3 
--------------------------------------------------------------------------------

********************************************************************************
*  Output for configuration   1 : ReferenceDataBase/8194023_111                *
********************************************************************************


  Components of energy : 

--------------------------------------------------------------------------------
  Interatomic potentials     =        1621.82665718 eV    
  Three-body potentials      =           0.29294119 eV    
  Monopole - monopole (real) =       -6310.90065041 eV    
  Monopole - monopole (recip)=       -1902.56987718 eV    
  Monopole - monopole (total)=       -8213.47052758 eV    
--------------------------------------------------------------------------------
  Total lattice energy       =       -6591.35092921 eV    
--------------------------------------------------------------------------------
  Total lattice energy       =         -635964.6066 kJ/(mole unit cells)
--------------------------------------------------------------------------------


  Number of variables =      783

  Maximum number of calculations  =           500
  Maximum Hessian update interval =            10
  Maximum step size               =   0.100000000
  Maximum parameter tolerance     =   0.000010000
  Maximum function  tolerance     =   0.000010000
  Maximum gradient  tolerance     =   0.001000000
  Maximum gradient  component     =   0.010000000

  Cell parameters to be optimised using strains

  Newton-Raphson optimiser to be used

  BFGS hessian update to be used

  General 2-D hessian to be used

  Minimiser to switch to RFO
  When gradient norm is less than     0.080000

  Switch max step size to       0.30000000 when gnorm is less than     0.005000

  Dumpfile to be written after every cycle

  Start of bulk optimisation :

  Cycle:      0 Energy:     -6591.350929  Gnorm:      3.984105  CPU:    0.147
  ** Hessian calculated **
  Cycle:      1 Energy:     -6626.054474  Gnorm:      3.137402  CPU:    0.256
  ** Hessian calculated **
  Cycle:      2 Energy:     -6678.447959  Gnorm:      0.590696  CPU:    0.439
  ** Hessian calculated **
  Cycle:      3 Energy:     -6680.119698  Gnorm:      0.295415  CPU:    0.596
  Cycle:      4 Energy:     -6680.550510  Gnorm:      0.147814  CPU:    0.660
  Cycle:      5 Energy:     -6680.664114  Gnorm:      0.073797  CPU:    0.718
  ** Hessian has required structure
  Cycle:      6 Energy:     -6680.664141  Gnorm:      0.074658  CPU:    0.789
  ** Hessian has required structure
  Cycle:      7 Energy:     -6680.664160  Gnorm:      0.074777  CPU:    0.859
  ** Hessian has required structure
  Cycle:      8 Energy:     -6680.664174  Gnorm:      0.074883  CPU:    0.930
  ** Hessian has required structure
  ** Hessian has required structure
  Cycle:      9 Energy:     -6680.693800  Gnorm:      0.037455  CPU:    1.124
  ** Hessian has required structure
  Cycle:     10 Energy:     -6680.700366  Gnorm:      0.022480  CPU:    1.202
  ** Hessian has required structure
  Cycle:     11 Energy:     -6680.703308  Gnorm:      0.011241  CPU:    1.289
  ** Hessian has required structure
  Cycle:     12 Energy:     -6680.704011  Gnorm:      0.006744  CPU:    1.367
  ** Hessian has required structure
  Cycle:     13 Energy:     -6680.704257  Gnorm:      0.003372  CPU:    1.454
  ** Hessian has required structure
  Cycle:     14 Energy:     -6680.704339  Gnorm:      0.000003  CPU:    1.532
  ** Hessian has required structure


  **** Optimisation achieved ****


  Final energy =   -6680.70433926 eV      
  Final Gnorm  =       0.00000054

  Components of energy : 

--------------------------------------------------------------------------------
  Interatomic potentials     =        1825.08397204 eV    
  Three-body potentials      =           1.54251126 eV    
  Monopole - monopole (real) =       -5808.65855231 eV    
  Monopole - monopole (recip)=       -2698.67227025 eV    
  Monopole - monopole (total)=       -8507.33082256 eV    
--------------------------------------------------------------------------------
  Total lattice energy       =       -6680.70433926 eV    
--------------------------------------------------------------------------------
  Total lattice energy       =         -644585.8448 kJ/(mole unit cells)
--------------------------------------------------------------------------------

  Final fractional coordinates of atoms :

--------------------------------------------------------------------------------
   No.  Atomic        x           y          z          Radius
        Label       (Frac)      (Frac)     (Frac)       (Angs) 
--------------------------------------------------------------------------------
     1  Si    c     0.211006    0.125073    0.367085    0.000000
     2  Si    c     0.886669    0.249644    0.367662    0.000000
     3  Si    c     0.608123    0.192550    0.247680    0.000000
     4  Si    c     0.610587    0.570219    0.241609    0.000000
     5  Si    c     0.297384    0.311954    0.637063    0.000000
     6  O     c     0.135825    0.180045    0.330155    0.000000
     7  O     c     0.316607    0.137984    0.308358    0.000000
     8  O     c     0.164922    0.059909    0.321996    0.000000
     9  O     c     0.804558    0.300410    0.329418    0.000000
    10  O     c     0.649065    0.586486    0.114551    0.000000
    11  O     c     0.643655    0.196653    0.115616    0.000000
    12  O     c     0.621055    0.261034    0.305826    0.000000
    13  O     c     0.662130    0.615259    0.333650    0.000000
    14  Si    c     0.611347    0.623042    0.002334    0.000000
    15  Si    c     0.377570    0.234024    0.002334    0.000000
    16  O     c     0.656726    0.693398    0.002334    0.000000
    17  Si    c     0.882366    0.998875    0.638393    0.000000
    18  O     c     0.228726    0.124001    0.502334    0.000000
    19  O     c     0.897894    0.251129    0.502334    0.000000
    20  O     c     0.310815    0.302319    0.502334    0.000000
    21  O     c     0.994058    0.264489    0.311609    0.000000
    22  O     c     0.494058    0.624289    0.002334    0.000000
    23  O     c     0.494058    0.242789    0.002334    0.000000
    24  O     c     0.494058    0.172821    0.256957    0.000000
    25  O     c     0.494058    0.580056    0.250409    0.000000
    26  O     c     0.887555    0.998875    0.502334    0.000000
    27  O     c     0.994058    0.998874    0.687613    0.000000
    28  O     c     0.640787    0.498875    0.271557    0.000000
    29  Si    c     0.777110    0.872676    0.367085    0.000000
    30  Si    c     0.101448    0.748105    0.367662    0.000000
    31  Si    c     0.379993    0.805199    0.247680    0.000000
    32  Si    c     0.377529    0.427530    0.241609    0.000000
    33  Si    c     0.690732    0.685795    0.637063    0.000000
    34  O     c     0.852291    0.817704    0.330155    0.000000
    35  O     c     0.671510    0.859765    0.308358    0.000000
    36  O     c     0.823194    0.937840    0.321996    0.000000
    37  O     c     0.183558    0.697339    0.329418    0.000000
    38  O     c     0.339052    0.411263    0.114551    0.000000
    39  O     c     0.344461    0.801096    0.115615    0.000000
    40  O     c     0.367062    0.736715    0.305826    0.000000
    41  O     c     0.325986    0.382490    0.333650    0.000000
    42  Si    c     0.376770    0.374707    0.002334    0.000000
    43  Si    c     0.610546    0.763725    0.002334    0.000000
    44  O     c     0.331391    0.304351    0.002334    0.000000
    45  Si    c     0.105750    0.998874    0.638393    0.000000
    46  O     c     0.759391    0.873748    0.502334    0.000000
    47  O     c     0.090223    0.746620    0.502334    0.000000
    48  O     c     0.677302    0.695430    0.502334    0.000000
    49  O     c     0.994058    0.733260    0.311609    0.000000
    50  O     c     0.494058    0.373460    0.002334    0.000000
    51  O     c     0.494058    0.754960    0.002334    0.000000
    52  O     c     0.494058    0.824928    0.256957    0.000000
    53  O     c     0.494058    0.417693    0.250409    0.000000
    54  O     c     0.100561    0.998874    0.502334    0.000000
    55  O     c     0.347330    0.498874    0.271557    0.000000
    56  Si    c     0.211006    0.872676    0.637583    0.000000
    57  Si    c     0.886668    0.748105    0.637007    0.000000
    58  Si    c     0.608123    0.805200    0.756989    0.000000
    59  Si    c     0.610587    0.427530    0.763060    0.000000
    60  Si    c     0.297384    0.685795    0.367606    0.000000
    61  O     c     0.135825    0.817704    0.674512    0.000000
    62  O     c     0.316606    0.859765    0.696311    0.000000
    63  O     c     0.164922    0.937840    0.682673    0.000000
    64  O     c     0.804559    0.697339    0.675250    0.000000
    65  O     c     0.649065    0.411263    0.890118    0.000000
    66  O     c     0.643655    0.801096    0.889053    0.000000
    67  O     c     0.621055    0.736715    0.698843    0.000000
    68  O     c     0.662130    0.382490    0.671019    0.000000
    69  Si    c     0.611347    0.374707    0.002334    0.000000
    70  Si    c     0.377570    0.763724    0.002334    0.000000
    71  O     c     0.656726    0.304352    0.002334    0.000000
    72  Si    c     0.882366    0.998875    0.366275    0.000000
    73  O     c     0.228726    0.873748    0.502334    0.000000
    74  O     c     0.897894    0.746621    0.502334    0.000000
    75  O     c     0.310814    0.695430    0.502334    0.000000
    76  O     c     0.994058    0.733260    0.693059    0.000000
    77  O     c     0.494058    0.824928    0.747711    0.000000
    78  O     c     0.494058    0.417693    0.754259    0.000000
    79  O     c     0.994058    0.998874    0.317056    0.000000
    80  O     c     0.640787    0.498875    0.733112    0.000000
    81  Si    c     0.777110    0.125073    0.637583    0.000000
    82  Si    c     0.101448    0.249644    0.637007    0.000000
    83  Si    c     0.379993    0.192549    0.756988    0.000000
    84  Si    c     0.377529    0.570219    0.763060    0.000000
    85  Si    c     0.690732    0.311954    0.367606    0.000000
    86  O     c     0.852292    0.180045    0.674513    0.000000
    87  O     c     0.671510    0.137984    0.696311    0.000000
    88  O     c     0.823195    0.059909    0.682673    0.000000
    89  O     c     0.183558    0.300410    0.675250    0.000000
    90  O     c     0.339052    0.586486    0.890118    0.000000
    91  O     c     0.344461    0.196653    0.889053    0.000000
    92  O     c     0.367062    0.261034    0.698843    0.000000
    93  O     c     0.325986    0.615259    0.671019    0.000000
    94  Si    c     0.376770    0.623042    0.002334    0.000000
    95  Si    c     0.610546    0.234024    0.002334    0.000000
    96  O     c     0.331391    0.693397    0.002334    0.000000
    97  Si    c     0.105750    0.998874    0.366275    0.000000
    98  O     c     0.759390    0.124001    0.502334    0.000000
    99  O     c     0.090222    0.251128    0.502334    0.000000
   100  O     c     0.677303    0.302319    0.502334    0.000000
   101  O     c     0.994058    0.264489    0.693059    0.000000
   102  O     c     0.494058    0.172821    0.747711    0.000000
   103  O     c     0.494058    0.580056    0.754259    0.000000
   104  O     c     0.347330    0.498874    0.733112    0.000000
   105  Si    c     0.777110    0.872676    0.637583    0.000000
   106  Si    c     0.101448    0.748105    0.637007    0.000000
   107  Si    c     0.379993    0.805199    0.756988    0.000000
   108  Si    c     0.377529    0.427530    0.763060    0.000000
   109  Si    c     0.690732    0.685795    0.367606    0.000000
   110  O     c     0.852291    0.817704    0.674514    0.000000
   111  O     c     0.671510    0.859765    0.696311    0.000000
   112  O     c     0.823194    0.937840    0.682673    0.000000
   113  O     c     0.183558    0.697339    0.675251    0.000000
   114  O     c     0.339052    0.411263    0.890118    0.000000
   115  O     c     0.344461    0.801096    0.889053    0.000000
   116  O     c     0.367062    0.736715    0.698843    0.000000
   117  O     c     0.325987    0.382490    0.671019    0.000000
   118  Si    c     0.211006    0.125073    0.637583    0.000000
   119  Si    c     0.886669    0.249644    0.637007    0.000000
   120  Si    c     0.608123    0.192550    0.756989    0.000000
   121  Si    c     0.610587    0.570219    0.763060    0.000000
   122  Si    c     0.297384    0.311954    0.367606    0.000000
   123  O     c     0.135825    0.180045    0.674513    0.000000
   124  O     c     0.316607    0.137984    0.696311    0.000000
   125  O     c     0.164922    0.059909    0.682673    0.000000
   126  O     c     0.804558    0.300410    0.675251    0.000000
   127  O     c     0.649065    0.586486    0.890118    0.000000
   128  O     c     0.643655    0.196653    0.889053    0.000000
   129  O     c     0.621055    0.261034    0.698843    0.000000
   130  O     c     0.662130    0.615259    0.671019    0.000000
   131  Si    c     0.777110    0.125073    0.367086    0.000000
   132  Si    c     0.101448    0.249644    0.367662    0.000000
   133  Si    c     0.379993    0.192549    0.247680    0.000000
   134  Si    c     0.377529    0.570219    0.241609    0.000000
   135  Si    c     0.690732    0.311954    0.637063    0.000000
   136  O     c     0.852291    0.180045    0.330156    0.000000
   137  O     c     0.671510    0.137984    0.308358    0.000000
   138  O     c     0.823194    0.059909    0.321996    0.000000
   139  O     c     0.183558    0.300410    0.329419    0.000000
   140  O     c     0.339052    0.586486    0.114551    0.000000
   141  O     c     0.344461    0.196653    0.115615    0.000000
   142  O     c     0.367062    0.261034    0.305825    0.000000
   143  O     c     0.325986    0.615259    0.333650    0.000000
   144  Si    c     0.211006    0.872676    0.367086    0.000000
   145  Si    c     0.886668    0.748105    0.367662    0.000000
   146  Si    c     0.608123    0.805200    0.247680    0.000000
   147  Si    c     0.610587    0.427530    0.241609    0.000000
   148  Si    c     0.297384    0.685795    0.637063    0.000000
   149  O     c     0.135825    0.817704    0.330156    0.000000
   150  O     c     0.316606    0.859765    0.308358    0.000000
   151  O     c     0.164922    0.937840    0.321996    0.000000
   152  O     c     0.804558    0.697339    0.329419    0.000000
   153  O     c     0.649065    0.411263    0.114551    0.000000
   154  O     c     0.643655    0.801096    0.115615    0.000000
   155  O     c     0.621055    0.736715    0.305825    0.000000
   156  O     c     0.662130    0.382490    0.333650    0.000000
   157  O     s     0.140375    0.181647    0.338273    0.000000
   158  O     s     0.312054    0.142632    0.308077    0.000000
   159  O     s     0.163530    0.060409    0.331915    0.000000
   160  O     s     0.801644    0.296079    0.337509    0.000000
   161  O     s     0.640736    0.588758    0.115974    0.000000
   162  O     s     0.636284    0.200337    0.117056    0.000000
   163  O     s     0.627359    0.259310    0.306291    0.000000
   164  O     s     0.659552    0.618250    0.327109    0.000000
   165  O     s     0.647017    0.693315    0.002334    0.000000
   166  O     s     0.224665    0.124225    0.502334    0.000000
   167  O     s     0.895213    0.250764    0.502334    0.000000
   168  O     s     0.307657    0.304468    0.502334    0.000000
   169  O     s     0.994058    0.261436    0.323186    0.000000
   170  O     s     0.494058    0.623967    0.002334    0.000000
   171  O     s     0.494058    0.240762    0.002334    0.000000
   172  O     s     0.494058    0.177242    0.254813    0.000000
   173  O     s     0.494058    0.577794    0.248339    0.000000
   174  O     s     0.886364    0.998875    0.502334    0.000000
   175  O     s     0.994058    0.998874    0.677146    0.000000
   176  O     s     0.634060    0.498875    0.264945    0.000000
   177  O     s     0.847741    0.816102    0.338273    0.000000
   178  O     s     0.676063    0.855117    0.308077    0.000000
   179  O     s     0.824586    0.937340    0.331915    0.000000
   180  O     s     0.186472    0.701670    0.337508    0.000000
   181  O     s     0.347380    0.408991    0.115974    0.000000
   182  O     s     0.351833    0.797412    0.117055    0.000000
   183  O     s     0.360757    0.738439    0.306291    0.000000
   184  O     s     0.328564    0.379499    0.327109    0.000000
   185  O     s     0.341099    0.304434    0.002334    0.000000
   186  O     s     0.763452    0.873524    0.502334    0.000000
   187  O     s     0.092903    0.746985    0.502334    0.000000
   188  O     s     0.680459    0.693280    0.502334    0.000000
   189  O     s     0.994058    0.736313    0.323186    0.000000
   190  O     s     0.494058    0.373782    0.002334    0.000000
   191  O     s     0.494058    0.756987    0.002334    0.000000
   192  O     s     0.494058    0.820507    0.254813    0.000000
   193  O     s     0.494058    0.419955    0.248339    0.000000
   194  O     s     0.101752    0.998874    0.502334    0.000000
   195  O     s     0.354057    0.498874    0.264944    0.000000
   196  O     s     0.140375    0.816102    0.666395    0.000000
   197  O     s     0.312054    0.855117    0.696592    0.000000
   198  O     s     0.163530    0.937340    0.672754    0.000000
   199  O     s     0.801645    0.701670    0.667159    0.000000
   200  O     s     0.640736    0.408991    0.888695    0.000000
   201  O     s     0.636284    0.797412    0.887613    0.000000
   202  O     s     0.627360    0.738439    0.698378    0.000000
   203  O     s     0.659552    0.379499    0.677559    0.000000
   204  O     s     0.647017    0.304434    0.002334    0.000000
   205  O     s     0.224665    0.873524    0.502334    0.000000
   206  O     s     0.895213    0.746986    0.502334    0.000000
   207  O     s     0.307657    0.693280    0.502334    0.000000
   208  O     s     0.994058    0.736313    0.681482    0.000000
   209  O     s     0.494058    0.820507    0.749856    0.000000
   210  O     s     0.494058    0.419955    0.756330    0.000000
   211  O     s     0.994058    0.998874    0.327523    0.000000
   212  O     s     0.634060    0.498875    0.739724    0.000000
   213  O     s     0.847742    0.181647    0.666395    0.000000
   214  O     s     0.676063    0.142632    0.696592    0.000000
   215  O     s     0.824586    0.060409    0.672754    0.000000
   216  O     s     0.186472    0.296079    0.667159    0.000000
   217  O     s     0.347380    0.588758    0.888695    0.000000
   218  O     s     0.351833    0.200337    0.887613    0.000000
   219  O     s     0.360757    0.259310    0.698378    0.000000
   220  O     s     0.328564    0.618250    0.677559    0.000000
   221  O     s     0.341099    0.693315    0.002334    0.000000
   222  O     s     0.763451    0.124225    0.502334    0.000000
   223  O     s     0.092903    0.250763    0.502334    0.000000
   224  O     s     0.680460    0.304469    0.502334    0.000000
   225  O     s     0.994058    0.261436    0.681482    0.000000
   226  O     s     0.494058    0.177242    0.749856    0.000000
   227  O     s     0.494058    0.577794    0.756330    0.000000
   228  O     s     0.354057    0.498874    0.739724    0.000000
   229  O     s     0.847741    0.816102    0.666396    0.000000
   230  O     s     0.676063    0.855117    0.696592    0.000000
   231  O     s     0.824586    0.937340    0.672754    0.000000
   232  O     s     0.186472    0.701670    0.667160    0.000000
   233  O     s     0.347380    0.408991    0.888695    0.000000
   234  O     s     0.351833    0.797412    0.887613    0.000000
   235  O     s     0.360757    0.738439    0.698378    0.000000
   236  O     s     0.328564    0.379499    0.677559    0.000000
   237  O     s     0.140375    0.181647    0.666396    0.000000
   238  O     s     0.312054    0.142632    0.696592    0.000000
   239  O     s     0.163531    0.060409    0.672753    0.000000
   240  O     s     0.801644    0.296079    0.667160    0.000000
   241  O     s     0.640736    0.588758    0.888695    0.000000
   242  O     s     0.636284    0.200337    0.887613    0.000000
   243  O     s     0.627359    0.259310    0.698378    0.000000
   244  O     s     0.659552    0.618250    0.677559    0.000000
   245  O     s     0.847742    0.181647    0.338274    0.000000
   246  O     s     0.676063    0.142632    0.308077    0.000000
   247  O     s     0.824586    0.060409    0.331915    0.000000
   248  O     s     0.186472    0.296079    0.337509    0.000000
   249  O     s     0.347380    0.588758    0.115974    0.000000
   250  O     s     0.351833    0.200337    0.117055    0.000000
   251  O     s     0.360757    0.259310    0.306291    0.000000
   252  O     s     0.328564    0.618250    0.327109    0.000000
   253  O     s     0.140375    0.816102    0.338274    0.000000
   254  O     s     0.312053    0.855117    0.308077    0.000000
   255  O     s     0.163530    0.937340    0.331915    0.000000
   256  O     s     0.801644    0.701670    0.337509    0.000000
   257  O     s     0.640736    0.408991    0.115974    0.000000
   258  O     s     0.636284    0.797412    0.117056    0.000000
   259  O     s     0.627360    0.738439    0.306291    0.000000
   260  O     s     0.659552    0.379499    0.327109    0.000000
--------------------------------------------------------------------------------

  Final Cartesian lattice vectors (Angstroms) :

       13.546504   -0.000001   -0.000001
       -0.000002   21.213241   -0.000000
       -0.000001   -0.000000   11.693680


  Final cell parameters and derivatives :

--------------------------------------------------------------------------------
       a           13.546504 Angstrom     dE/de1(xx)     0.000062 eV/strain
       b           21.213241 Angstrom     dE/de2(yy)     0.000075 eV/strain
       c           11.693680 Angstrom     dE/de3(zz)     0.000050 eV/strain
       alpha       90.000000 Degrees      dE/de4(yz)    -0.000000 eV/strain
       beta        90.000000 Degrees      dE/de5(xz)     0.000002 eV/strain
       gamma       90.000000 Degrees      dE/de6(xy)     0.000000 eV/strain
--------------------------------------------------------------------------------

  Primitive cell volume =          3360.357325 Angs**3

  Density of cell =      1.544102 g/cm**3

  Non-primitive cell volume =          3360.357325 Angs**3


  Final internal derivatives :

--------------------------------------------------------------------------------
   No.  Atomic          a             b             c           Radius
        Label          (eV)          (eV)          (eV)        (eV/Angs)
--------------------------------------------------------------------------------
      1 Si    c      -0.000010     -0.000016     -0.000003      0.000000
      2 Si    c       0.000005      0.000014      0.000002      0.000000
      3 Si    c      -0.000004     -0.000037     -0.000008      0.000000
      4 Si    c       0.000021     -0.000008     -0.000007      0.000000
      5 Si    c      -0.000010     -0.000000      0.000000      0.000000
      6 O     c      -0.000004     -0.000013     -0.000008      0.000000
      7 O     c       0.000026     -0.000017     -0.000011      0.000000
      8 O     c       0.000002     -0.000007     -0.000012      0.000000
      9 O     c       0.000000      0.000022     -0.000004      0.000000
     10 O     c       0.000011     -0.000007     -0.000009      0.000000
     11 O     c       0.000011     -0.000017     -0.000001      0.000000
     12 O     c      -0.000002      0.000038      0.000007      0.000000
     13 O     c       0.000006     -0.000034      0.000010      0.000000
     14 Si    c       0.000005     -0.000014     -0.000001      0.000000
     15 Si    c      -0.000011     -0.000013      0.000001      0.000000
     16 O     c       0.000013     -0.000002      0.000001      0.000000
     17 Si    c      -0.000001      0.000000      0.000011      0.000000
     18 O     c       0.000018      0.000007      0.000002      0.000000
     19 O     c       0.000000      0.000002      0.000000      0.000000
     20 O     c       0.000011     -0.000007      0.000002      0.000000
     21 O     c      -0.000000      0.000015     -0.000010      0.000000
     22 O     c       0.000000     -0.000004     -0.000000      0.000000
     23 O     c       0.000001      0.000005      0.000000      0.000000
     24 O     c       0.000002     -0.000019      0.000002      0.000000
     25 O     c       0.000003      0.000050      0.000006      0.000000
     26 O     c      -0.000004      0.000000      0.000001      0.000000
     27 O     c       0.000000      0.000000      0.000010      0.000000
     28 O     c       0.000024      0.000004      0.000016      0.000000
     29 Si    c       0.000006      0.000017     -0.000006      0.000000
     30 Si    c      -0.000001     -0.000013      0.000004      0.000000
     31 Si    c       0.000006      0.000037     -0.000005      0.000000
     32 Si    c      -0.000018      0.000014     -0.000007      0.000000
     33 Si    c       0.000006      0.000004     -0.000001      0.000000
     34 O     c       0.000003      0.000014     -0.000008      0.000000
     35 O     c      -0.000021      0.000017     -0.000010      0.000000
     36 O     c      -0.000005      0.000001     -0.000012      0.000000
     37 O     c      -0.000006     -0.000018     -0.000004      0.000000
     38 O     c      -0.000012      0.000005     -0.000012      0.000000
     39 O     c      -0.000012      0.000015     -0.000009      0.000000
     40 O     c       0.000002     -0.000039      0.000008      0.000000
     41 O     c      -0.000006      0.000034      0.000012      0.000000
     42 Si    c      -0.000005      0.000013      0.000001      0.000000
     43 Si    c       0.000011      0.000013     -0.000001      0.000000
     44 O     c      -0.000013      0.000001     -0.000001      0.000000
     45 Si    c      -0.000002     -0.000001      0.000012      0.000000
     46 O     c      -0.000017     -0.000008     -0.000002      0.000000
     47 O     c       0.000000     -0.000001     -0.000001      0.000000
     48 O     c      -0.000011      0.000007     -0.000002      0.000000
     49 O     c      -0.000006     -0.000015     -0.000010      0.000000
     50 O     c      -0.000000      0.000004      0.000000      0.000000
     51 O     c      -0.000002     -0.000005     -0.000000      0.000000
     52 O     c      -0.000000      0.000019      0.000002      0.000000
     53 O     c      -0.000002     -0.000051      0.000006      0.000000
     54 O     c       0.000004     -0.000000     -0.000001      0.000000
     55 O     c      -0.000021     -0.000004      0.000015      0.000000
     56 Si    c      -0.000013      0.000020      0.000006      0.000000
     57 Si    c       0.000005     -0.000018      0.000008      0.000000
     58 Si    c      -0.000004      0.000039      0.000003      0.000000
     59 Si    c       0.000018      0.000013      0.000008      0.000000
     60 Si    c      -0.000011      0.000001      0.000001      0.000000
     61 O     c      -0.000006     -0.000003      0.000005      0.000000
     62 O     c       0.000024      0.000018      0.000011      0.000000
     63 O     c       0.000005      0.000002      0.000011      0.000000
     64 O     c       0.000011     -0.000019      0.000009      0.000000
     65 O     c       0.000012      0.000005      0.000012      0.000000
     66 O     c       0.000012      0.000015      0.000009      0.000000
     67 O     c      -0.000003     -0.000039     -0.000009      0.000000
     68 O     c       0.000007      0.000030     -0.000013      0.000000
     69 Si    c       0.000005      0.000014     -0.000001      0.000000
     70 Si    c      -0.000011      0.000014      0.000001      0.000000
     71 O     c       0.000013      0.000002      0.000001      0.000000
     72 Si    c       0.000002      0.000001     -0.000012      0.000000
     73 O     c       0.000019     -0.000002      0.000002      0.000000
     74 O     c       0.000004     -0.000006      0.000001      0.000000
     75 O     c       0.000009      0.000005      0.000001      0.000000
     76 O     c      -0.000001     -0.000015      0.000010      0.000000
     77 O     c      -0.000002      0.000019     -0.000002      0.000000
     78 O     c      -0.000002     -0.000049     -0.000006      0.000000
     79 O     c      -0.000000     -0.000000     -0.000010      0.000000
     80 O     c       0.000021      0.000002     -0.000015      0.000000
     81 Si    c       0.000014     -0.000018      0.000003      0.000000
     82 Si    c      -0.000007      0.000017      0.000006      0.000000
     83 Si    c       0.000002     -0.000040      0.000007      0.000000
     84 Si    c      -0.000020     -0.000008      0.000007      0.000000
     85 Si    c       0.000013     -0.000000     -0.000001      0.000000
     86 O     c       0.000005     -0.000002      0.000006      0.000000
     87 O     c      -0.000028     -0.000017      0.000011      0.000000
     88 O     c      -0.000002     -0.000007      0.000011      0.000000
     89 O     c      -0.000004      0.000022      0.000007      0.000000
     90 O     c      -0.000012     -0.000007      0.000011      0.000000
     91 O     c      -0.000011     -0.000018      0.000001      0.000000
     92 O     c       0.000003      0.000038     -0.000008      0.000000
     93 O     c      -0.000007     -0.000031     -0.000012      0.000000
     94 Si    c      -0.000005     -0.000013      0.000001      0.000000
     95 Si    c       0.000011     -0.000013     -0.000001      0.000000
     96 O     c      -0.000013     -0.000002     -0.000001      0.000000
     97 Si    c       0.000002     -0.000001     -0.000011      0.000000
     98 O     c      -0.000018      0.000003     -0.000002      0.000000
     99 O     c      -0.000003      0.000005     -0.000001      0.000000
    100 O     c      -0.000009     -0.000005     -0.000001      0.000000
    101 O     c       0.000005      0.000015      0.000010      0.000000
    102 O     c       0.000000     -0.000019     -0.000002      0.000000
    103 O     c       0.000001      0.000050     -0.000006      0.000000
    104 O     c      -0.000024     -0.000003     -0.000016      0.000000
    105 Si    c       0.000008      0.000015      0.000003      0.000000
    106 Si    c      -0.000004     -0.000013     -0.000004      0.000000
    107 Si    c       0.000004      0.000037      0.000009      0.000000
    108 Si    c      -0.000021      0.000008      0.000007      0.000000
    109 Si    c       0.000009      0.000001     -0.000000      0.000000
    110 O     c       0.000004      0.000016      0.000008      0.000000
    111 O     c      -0.000025      0.000017      0.000010      0.000000
    112 O     c      -0.000002      0.000007      0.000012      0.000000
    113 O     c       0.000001     -0.000022      0.000003      0.000000
    114 O     c      -0.000012      0.000007      0.000010      0.000000
    115 O     c      -0.000011      0.000018      0.000001      0.000000
    116 O     c       0.000002     -0.000039     -0.000007      0.000000
    117 O     c      -0.000006      0.000033     -0.000010      0.000000
    118 Si    c      -0.000008     -0.000018      0.000006      0.000000
    119 Si    c       0.000002      0.000014     -0.000002      0.000000
    120 Si    c      -0.000006     -0.000038      0.000005      0.000000
    121 Si    c       0.000018     -0.000013      0.000007      0.000000
    122 Si    c      -0.000007     -0.000004      0.000001      0.000000
    123 O     c      -0.000004     -0.000011      0.000007      0.000000
    124 O     c       0.000021     -0.000017      0.000010      0.000000
    125 O     c       0.000005     -0.000001      0.000012      0.000000
    126 O     c       0.000007      0.000019      0.000005      0.000000
    127 O     c       0.000012     -0.000005      0.000012      0.000000
    128 O     c       0.000012     -0.000015      0.000009      0.000000
    129 O     c      -0.000002      0.000040     -0.000009      0.000000
    130 O     c       0.000006     -0.000034     -0.000012      0.000000
    131 Si    c       0.000012     -0.000020     -0.000006      0.000000
    132 Si    c      -0.000004      0.000017     -0.000006      0.000000
    133 Si    c       0.000004     -0.000039     -0.000004      0.000000
    134 Si    c      -0.000018     -0.000012     -0.000007      0.000000
    135 Si    c       0.000010     -0.000001     -0.000001      0.000000
    136 O     c       0.000005      0.000001     -0.000006      0.000000
    137 O     c      -0.000024     -0.000018     -0.000011      0.000000
    138 O     c      -0.000005     -0.000002     -0.000011      0.000000
    139 O     c      -0.000010      0.000019     -0.000008      0.000000
    140 O     c      -0.000012     -0.000005     -0.000012      0.000000
    141 O     c      -0.000012     -0.000015     -0.000009      0.000000
    142 O     c       0.000003      0.000039      0.000009      0.000000
    143 O     c      -0.000008     -0.000029      0.000014      0.000000
    144 Si    c      -0.000015      0.000019     -0.000004      0.000000
    145 Si    c       0.000008     -0.000018     -0.000008      0.000000
    146 Si    c      -0.000002      0.000040     -0.000006      0.000000
    147 Si    c       0.000020      0.000009     -0.000008      0.000000
    148 Si    c      -0.000014     -0.000002      0.000000      0.000000
    149 O     c      -0.000006     -0.000001     -0.000006      0.000000
    150 O     c       0.000028      0.000017     -0.000011      0.000000
    151 O     c       0.000002      0.000007     -0.000011      0.000000
    152 O     c       0.000005     -0.000023     -0.000008      0.000000
    153 O     c       0.000012      0.000006     -0.000011      0.000000
    154 O     c       0.000011      0.000018     -0.000001      0.000000
    155 O     c      -0.000003     -0.000038      0.000008      0.000000
    156 O     c       0.000000      0.000000      0.000000      0.000000
    157 O     s       0.000005      0.000013      0.000011      0.000000
    158 O     s      -0.000018      0.000033      0.000001      0.000000
    159 O     s      -0.000010     -0.000001      0.000013      0.000000
    160 O     s      -0.000007     -0.000045      0.000009      0.000000
    161 O     s      -0.000006      0.000016     -0.000003      0.000000
    162 O     s      -0.000018      0.000030      0.000003      0.000000
    163 O     s       0.000005     -0.000024     -0.000000      0.000000
    164 O     s      -0.000001      0.000043     -0.000009      0.000000
    165 O     s      -0.000020      0.000004     -0.000001      0.000000
    166 O     s      -0.000001      0.000006     -0.000001      0.000000
    167 O     s      -0.000007     -0.000009     -0.000001      0.000000
    168 O     s      -0.000009     -0.000002     -0.000001      0.000000
    169 O     s      -0.000002     -0.000024      0.000017      0.000000
    170 O     s       0.000000      0.000015      0.000000      0.000000
    171 O     s       0.000000     -0.000002     -0.000000      0.000000
    172 O     s      -0.000000      0.000038     -0.000005      0.000000
    173 O     s      -0.000000     -0.000017      0.000004      0.000000
    174 O     s       0.000009     -0.000001      0.000001      0.000000
    175 O     s      -0.000001     -0.000000     -0.000017      0.000000
    176 O     s      -0.000011      0.000002     -0.000005      0.000000
    177 O     s      -0.000006     -0.000009      0.000009      0.000000
    178 O     s       0.000016     -0.000033      0.000002      0.000000
    179 O     s       0.000009      0.000000      0.000014      0.000000
    180 O     s       0.000008      0.000048      0.000011      0.000000
    181 O     s       0.000006     -0.000014     -0.000004      0.000000
    182 O     s       0.000019     -0.000031      0.000004      0.000000
    183 O     s      -0.000006      0.000023     -0.000002      0.000000
    184 O     s       0.000000     -0.000043     -0.000009      0.000000
    185 O     s       0.000020     -0.000004      0.000001      0.000000
    186 O     s       0.000002     -0.000006      0.000001      0.000000
    187 O     s       0.000008      0.000009      0.000001      0.000000
    188 O     s       0.000009      0.000001      0.000001      0.000000
    189 O     s       0.000006      0.000023      0.000017      0.000000
    190 O     s      -0.000000     -0.000015     -0.000001      0.000000
    191 O     s      -0.000000      0.000002      0.000000      0.000000
    192 O     s      -0.000002     -0.000038     -0.000006      0.000000
    193 O     s      -0.000002      0.000017      0.000005      0.000000
    194 O     s      -0.000010      0.000001     -0.000001      0.000000
    195 O     s       0.000009     -0.000001     -0.000007      0.000000
    196 O     s       0.000004     -0.000014     -0.000016      0.000000
    197 O     s      -0.000016     -0.000033     -0.000003      0.000000
    198 O     s      -0.000011     -0.000003     -0.000013      0.000000
    199 O     s      -0.000011      0.000033     -0.000009      0.000000
    200 O     s      -0.000007     -0.000015      0.000004      0.000000
    201 O     s      -0.000019     -0.000030     -0.000005      0.000000
    202 O     s       0.000007      0.000023      0.000007      0.000000
    203 O     s       0.000001     -0.000044      0.000010      0.000000
    204 O     s      -0.000020     -0.000005     -0.000001      0.000000
    205 O     s       0.000006     -0.000011     -0.000001      0.000000
    206 O     s      -0.000003      0.000010     -0.000000      0.000000
    207 O     s      -0.000009      0.000002     -0.000001      0.000000
    208 O     s       0.000004      0.000024     -0.000017      0.000000
    209 O     s       0.000000     -0.000038      0.000006      0.000000
    210 O     s       0.000001      0.000017     -0.000004      0.000000
    211 O     s       0.000001      0.000000      0.000017      0.000000
    212 O     s      -0.000009      0.000001      0.000007      0.000000
    213 O     s      -0.000004      0.000017     -0.000016      0.000000
    214 O     s       0.000018      0.000033     -0.000002      0.000000
    215 O     s       0.000011      0.000002     -0.000012      0.000000
    216 O     s       0.000009     -0.000034     -0.000009      0.000000
    217 O     s       0.000006      0.000017      0.000004      0.000000
    218 O     s       0.000018      0.000029     -0.000003      0.000000
    219 O     s      -0.000006     -0.000024      0.000003      0.000000
    220 O     s      -0.000000      0.000046      0.000009      0.000000
    221 O     s       0.000021      0.000005      0.000001      0.000000
    222 O     s      -0.000004      0.000010      0.000001      0.000000
    223 O     s       0.000004     -0.000010      0.000000      0.000000
    224 O     s       0.000009     -0.000002      0.000001      0.000000
    225 O     s      -0.000004     -0.000024     -0.000017      0.000000
    226 O     s       0.000001      0.000038      0.000006      0.000000
    227 O     s       0.000002     -0.000016     -0.000005      0.000000
    228 O     s       0.000011     -0.000001      0.000005      0.000000
    229 O     s      -0.000006     -0.000012     -0.000010      0.000000
    230 O     s       0.000018     -0.000033     -0.000001      0.000000
    231 O     s       0.000010      0.000002     -0.000013      0.000000
    232 O     s       0.000007      0.000047     -0.000010      0.000000
    233 O     s       0.000006     -0.000016      0.000003      0.000000
    234 O     s       0.000018     -0.000030     -0.000003      0.000000
    235 O     s      -0.000005      0.000024     -0.000001      0.000000
    236 O     s       0.000001     -0.000043      0.000009      0.000000
    237 O     s       0.000005      0.000010     -0.000010      0.000000
    238 O     s      -0.000016      0.000033     -0.000002      0.000000
    239 O     s      -0.000009      0.000000     -0.000013      0.000000
    240 O     s      -0.000008     -0.000045     -0.000011      0.000000
    241 O     s      -0.000006      0.000015      0.000004      0.000000
    242 O     s      -0.000019      0.000030     -0.000004      0.000000
    243 O     s       0.000006     -0.000024      0.000003      0.000000
    244 O     s      -0.000000      0.000043      0.000009      0.000000
    245 O     s      -0.000004      0.000013      0.000015      0.000000
    246 O     s       0.000016      0.000033      0.000003      0.000000
    247 O     s       0.000011      0.000002      0.000013      0.000000
    248 O     s       0.000010     -0.000036      0.000009      0.000000
    249 O     s       0.000006      0.000016     -0.000004      0.000000
    250 O     s       0.000019      0.000030      0.000005      0.000000
    251 O     s      -0.000007     -0.000024     -0.000006      0.000000
    252 O     s      -0.000001      0.000045     -0.000010      0.000000
    253 O     s       0.000004     -0.000018      0.000017      0.000000
    254 O     s      -0.000018     -0.000033      0.000002      0.000000
    255 O     s      -0.000011     -0.000002      0.000012      0.000000
    256 O     s      -0.000010      0.000032      0.000008      0.000000
    257 O     s      -0.000005     -0.000017     -0.000004      0.000000
    258 O     s      -0.000018     -0.000029      0.000004      0.000000
    259 O     s       0.000006      0.000024     -0.000004      0.000000
    260 O     s       0.000001     -0.000048     -0.000009      0.000000
--------------------------------------------------------------------------------
  Maximum abs         0.000028      0.000051      0.000017      0.000000
--------------------------------------------------------------------------------


  Time to end of optimisation =       1.6032 seconds


  Peak dynamic memory used =       4.74 MB 


  Timing analysis for GULP :

--------------------------------------------------------------------------------
  Task / Subroutine                                          Time (Seconds)
--------------------------------------------------------------------------------
  Calculation of reciprocal space energy and derivatives          0.1317
  Calculation of real space energy and derivatives                0.9129
  Calculation of three-body energy and derivatives                0.1001
  Calculation and manipulation of Hessian matrix                  0.3425
  Calculation of matrix inversion                                 0.0784
  Symmetry generation of equivalent positions                     0.0002
  Global summation overhead                                       0.0122
--------------------------------------------------------------------------------
  Total CPU time                                                  1.6032
--------------------------------------------------------------------------------


  Dump file written as ReferenceDataBase/8194023_111.grs
  CIF file written as ReferenceDataBase/8194023_111_opt.cif


  Job Finished at 18:40.05 20th April      2023                               

