********************************************************************************
*                       GENERAL UTILITY LATTICE PROGRAM                        *
*                                 Julian Gale                                  *
*                       Curtin Institute for Computation                       *
*                    School of Molecular and Life Sciences                     *
*                    Curtin University, Western Australia                      *
********************************************************************************
* Version = 6.1.2 * Last modified =   3rd November 2022                        *
********************************************************************************
*  optimise     - perform optimisation run                                     *
*  conv         - constant volume calculation                                  *
*  shell        - only shells and radii to be optimised                        *
*  nosymmetry   - turn off symmetry after initial structure generation         *
********************************************************************************

  Job Started  at 00:41.51  6th February   2024                               

  Number of CPUs =     1


  Total number of configurations input =      1

********************************************************************************
*  Input for Configuration =   1 : ReferenceDataBase/8286937_111               *
********************************************************************************

  Formula = Si104O208                                                   

  Number of irreducible atoms/shells =     520


  Total number atoms/shells =     520

  Dimensionality = 3               :  Bulk   



  Cartesian lattice vectors (Angstroms) :

       21.954500    0.000000    0.000000
        0.000000   20.595400    0.000000
        0.000000    0.000000   18.282600

  Cell parameters (Angstroms/Degrees):

  a =      21.9545    alpha =  90.0000
  b =      20.5954    beta  =  90.0000
  c =      18.2826    gamma =  90.0000

  Initial cell volume =        8266.691666 Angs**3

  Temperature of configuration =   0.00     K 

  Pressure of configuration =         0.000 GPa 

  Fractional coordinates of asymmetric unit :

--------------------------------------------------------------------------------
   No.  Atomic       x           y          z         Charge      Occupancy
        Label      (Frac)      (Frac)     (Frac)        (e)         (Frac)  
--------------------------------------------------------------------------------
      1 Si    c    0.002013    0.570199    0.418417     4.00000    1.000000    
      2 Si    c    0.002013    0.416261    0.418417     4.00000    1.000000    
      3 Si    c    0.002013    0.416261    0.580631     4.00000    1.000000    
      4 Si    c    0.002013    0.570199    0.580631     4.00000    1.000000    
      5 Si    c    0.502013    0.070199    0.918417     4.00000    1.000000    
      6 Si    c    0.502013    0.916261    0.918417     4.00000    1.000000    
      7 Si    c    0.502013    0.916261    0.080631     4.00000    1.000000    
      8 Si    c    0.502013    0.070199    0.080631     4.00000    1.000000    
      9 Si    c    0.070854    0.993230    0.912115     4.00000    1.000000    
     10 Si    c    0.933172    0.993230    0.912115     4.00000    1.000000    
     11 Si    c    0.070854    0.993230    0.086933     4.00000    1.000000    
     12 Si    c    0.933172    0.993230    0.086933     4.00000    1.000000    
     13 Si    c    0.570854    0.493230    0.412115     4.00000    1.000000    
     14 Si    c    0.433172    0.493230    0.412115     4.00000    1.000000    
     15 Si    c    0.570854    0.493230    0.586933     4.00000    1.000000    
     16 Si    c    0.433172    0.493230    0.586933     4.00000    1.000000    
     17 Si    c    0.072548    0.742683    0.914965     4.00000    1.000000    
     18 Si    c    0.931479    0.243777    0.914965     4.00000    1.000000    
     19 Si    c    0.072548    0.243777    0.084083     4.00000    1.000000    
     20 Si    c    0.931479    0.742683    0.084083     4.00000    1.000000    
     21 Si    c    0.931479    0.243777    0.084083     4.00000    1.000000    
     22 Si    c    0.072548    0.742683    0.084083     4.00000    1.000000    
     23 Si    c    0.931479    0.742683    0.914965     4.00000    1.000000    
     24 Si    c    0.072548    0.243777    0.914965     4.00000    1.000000    
     25 Si    c    0.572548    0.242683    0.414965     4.00000    1.000000    
     26 Si    c    0.431479    0.743777    0.414965     4.00000    1.000000    
     27 Si    c    0.572548    0.743777    0.584083     4.00000    1.000000    
     28 Si    c    0.431479    0.242683    0.584083     4.00000    1.000000    
     29 Si    c    0.431479    0.743777    0.584083     4.00000    1.000000    
     30 Si    c    0.572548    0.242683    0.584083     4.00000    1.000000    
     31 Si    c    0.431479    0.242683    0.414965     4.00000    1.000000    
     32 Si    c    0.572548    0.743777    0.414965     4.00000    1.000000    
     33 Si    c    0.233572    0.417823    0.415925     4.00000    1.000000    
     34 Si    c    0.770455    0.568638    0.415925     4.00000    1.000000    
     35 Si    c    0.233572    0.568638    0.583123     4.00000    1.000000    
     36 Si    c    0.770455    0.417823    0.583123     4.00000    1.000000    
     37 Si    c    0.770455    0.568638    0.583123     4.00000    1.000000    
     38 Si    c    0.233572    0.417823    0.583123     4.00000    1.000000    
     39 Si    c    0.770455    0.417823    0.415925     4.00000    1.000000    
     40 Si    c    0.233572    0.568638    0.415925     4.00000    1.000000    
     41 Si    c    0.733572    0.917823    0.915925     4.00000    1.000000    
     42 Si    c    0.270455    0.068638    0.915925     4.00000    1.000000    
     43 Si    c    0.733572    0.068638    0.083123     4.00000    1.000000    
     44 Si    c    0.270455    0.917823    0.083123     4.00000    1.000000    
     45 Si    c    0.270455    0.068638    0.083123     4.00000    1.000000    
     46 Si    c    0.733572    0.917823    0.083123     4.00000    1.000000    
     47 Si    c    0.270455    0.917823    0.915925     4.00000    1.000000    
     48 Si    c    0.733572    0.068638    0.915925     4.00000    1.000000    
     49 Si    c    0.862681    0.117174    0.085897     4.00000    1.000000    
     50 Si    c    0.141345    0.869286    0.085897     4.00000    1.000000    
     51 Si    c    0.862681    0.869286    0.913151     4.00000    1.000000    
     52 Si    c    0.141345    0.117174    0.913151     4.00000    1.000000    
     53 Si    c    0.141345    0.869286    0.913151     4.00000    1.000000    
     54 Si    c    0.862681    0.117174    0.913151     4.00000    1.000000    
     55 Si    c    0.141345    0.117174    0.085897     4.00000    1.000000    
     56 Si    c    0.862681    0.869286    0.085897     4.00000    1.000000    
     57 Si    c    0.362681    0.617174    0.585897     4.00000    1.000000    
     58 Si    c    0.641345    0.369286    0.585897     4.00000    1.000000    
     59 Si    c    0.362681    0.369286    0.413151     4.00000    1.000000    
     60 Si    c    0.641345    0.617174    0.413151     4.00000    1.000000    
     61 Si    c    0.641345    0.369286    0.413151     4.00000    1.000000    
     62 Si    c    0.362681    0.617174    0.413151     4.00000    1.000000    
     63 Si    c    0.641345    0.617174    0.585897     4.00000    1.000000    
     64 Si    c    0.362681    0.369286    0.585897     4.00000    1.000000    
     65 Si    c    0.429744    0.993230    0.418537     4.00000    1.000000    
     66 Si    c    0.574282    0.993230    0.418537     4.00000    1.000000    
     67 Si    c    0.429744    0.993230    0.580511     4.00000    1.000000    
     68 Si    c    0.574282    0.993230    0.580511     4.00000    1.000000    
     69 Si    c    0.929744    0.493230    0.918537     4.00000    1.000000    
     70 Si    c    0.074282    0.493230    0.918537     4.00000    1.000000    
     71 Si    c    0.929744    0.493230    0.080511     4.00000    1.000000    
     72 Si    c    0.074282    0.493230    0.080511     4.00000    1.000000    
     73 Si    c    0.930393    0.614592    0.825291     4.00000    1.000000    
     74 Si    c    0.073634    0.371868    0.825291     4.00000    1.000000    
     75 Si    c    0.930393    0.371868    0.173757     4.00000    1.000000    
     76 Si    c    0.073634    0.614592    0.173757     4.00000    1.000000    
     77 Si    c    0.073634    0.371868    0.173757     4.00000    1.000000    
     78 Si    c    0.930393    0.614592    0.173757     4.00000    1.000000    
     79 Si    c    0.073634    0.614592    0.825291     4.00000    1.000000    
     80 Si    c    0.930393    0.371868    0.825291     4.00000    1.000000    
     81 Si    c    0.430393    0.114592    0.325291     4.00000    1.000000    
     82 Si    c    0.573634    0.871868    0.325291     4.00000    1.000000    
     83 Si    c    0.430393    0.871868    0.673757     4.00000    1.000000    
     84 Si    c    0.573633    0.114592    0.673757     4.00000    1.000000    
     85 Si    c    0.573633    0.871868    0.673757     4.00000    1.000000    
     86 Si    c    0.430393    0.114592    0.673757     4.00000    1.000000    
     87 Si    c    0.573634    0.114592    0.325291     4.00000    1.000000    
     88 Si    c    0.430393    0.871868    0.325291     4.00000    1.000000    
     89 Si    c    0.615556    0.916625    0.175138     4.00000    1.000000    
     90 Si    c    0.388471    0.069835    0.175138     4.00000    1.000000    
     91 Si    c    0.615556    0.069835    0.823910     4.00000    1.000000    
     92 Si    c    0.388471    0.916625    0.823910     4.00000    1.000000    
     93 Si    c    0.388471    0.069835    0.823910     4.00000    1.000000    
     94 Si    c    0.615556    0.916625    0.823910     4.00000    1.000000    
     95 Si    c    0.388471    0.916625    0.175138     4.00000    1.000000    
     96 Si    c    0.615556    0.069835    0.175138     4.00000    1.000000    
     97 Si    c    0.115556    0.416625    0.675138     4.00000    1.000000    
     98 Si    c    0.888471    0.569835    0.675138     4.00000    1.000000    
     99 Si    c    0.115556    0.569835    0.323909     4.00000    1.000000    
    100 Si    c    0.888471    0.416625    0.323909     4.00000    1.000000    
    101 Si    c    0.888471    0.569835    0.323909     4.00000    1.000000    
    102 Si    c    0.115556    0.416625    0.323909     4.00000    1.000000    
    103 Si    c    0.888471    0.416625    0.675138     4.00000    1.000000    
    104 Si    c    0.115556    0.569835    0.675138     4.00000    1.000000    
    105 O     c    0.061978    0.594281    0.376753     0.86902    1.000000    
    106 O     c    0.942049    0.392179    0.376753     0.86902    1.000000    
    107 O     c    0.061978    0.392179    0.622294     0.86902    1.000000    
    108 O     c    0.942049    0.594281    0.622294     0.86902    1.000000    
    109 O     c    0.942049    0.392179    0.622294     0.86902    1.000000    
    110 O     c    0.061978    0.594281    0.622294     0.86902    1.000000    
    111 O     c    0.942049    0.594281    0.376753     0.86902    1.000000    
    112 O     c    0.061978    0.392179    0.376753     0.86902    1.000000    
    113 O     c    0.561978    0.094281    0.876753     0.86902    1.000000    
    114 O     c    0.442049    0.892179    0.876753     0.86902    1.000000    
    115 O     c    0.561978    0.892179    0.122294     0.86902    1.000000    
    116 O     c    0.442049    0.094281    0.122294     0.86902    1.000000    
    117 O     c    0.442049    0.892179    0.122294     0.86902    1.000000    
    118 O     c    0.561978    0.094281    0.122294     0.86902    1.000000    
    119 O     c    0.442049    0.094281    0.876753     0.86902    1.000000    
    120 O     c    0.561978    0.892179    0.876753     0.86902    1.000000    
    121 O     c    0.002013    0.493230    0.424043     0.86902    1.000000    
    122 O     c    0.002013    0.493230    0.575005     0.86902    1.000000    
    123 O     c    0.502013    0.993230    0.924043     0.86902    1.000000    
    124 O     c    0.502013    0.993230    0.075005     0.86902    1.000000    
    125 O     c    0.002013    0.600820    0.499524     0.86902    1.000000    
    126 O     c    0.002013    0.385640    0.499524     0.86902    1.000000    
    127 O     c    0.502013    0.100820    0.999524     0.86902    1.000000    
    128 O     c    0.502013    0.885640    0.999524     0.86902    1.000000    
    129 O     c    0.103902    0.929547    0.879524     0.86902    1.000000    
    130 O     c    0.900124    0.056913    0.879524     0.86902    1.000000    
    131 O     c    0.103902    0.056913    0.119524     0.86902    1.000000    
    132 O     c    0.900124    0.929547    0.119524     0.86902    1.000000    
    133 O     c    0.900124    0.056913    0.119524     0.86902    1.000000    
    134 O     c    0.103902    0.929547    0.119524     0.86902    1.000000    
    135 O     c    0.900124    0.929547    0.879524     0.86902    1.000000    
    136 O     c    0.103902    0.056913    0.879524     0.86902    1.000000    
    137 O     c    0.603902    0.429547    0.379524     0.86902    1.000000    
    138 O     c    0.400124    0.556913    0.379524     0.86902    1.000000    
    139 O     c    0.603902    0.556913    0.619524     0.86902    1.000000    
    140 O     c    0.400124    0.429547    0.619524     0.86902    1.000000    
    141 O     c    0.400124    0.556913    0.619524     0.86902    1.000000    
    142 O     c    0.603902    0.429547    0.619524     0.86902    1.000000    
    143 O     c    0.400124    0.429547    0.379524     0.86902    1.000000    
    144 O     c    0.603902    0.556913    0.379524     0.86902    1.000000    
    145 O     c    0.002013    0.993230    0.883486     0.86902    1.000000    
    146 O     c    0.002013    0.993230    0.115561     0.86902    1.000000    
    147 O     c    0.502013    0.493230    0.383487     0.86902    1.000000    
    148 O     c    0.502013    0.493230    0.615561     0.86902    1.000000    
    149 O     c    0.073668    0.993230    0.999524     0.86902    1.000000    
    150 O     c    0.930359    0.993230    0.999524     0.86902    1.000000    
    151 O     c    0.573668    0.493230    0.499524     0.86902    1.000000    
    152 O     c    0.430359    0.493230    0.499524     0.86902    1.000000    
    153 O     c    0.113550    0.801690    0.884519     0.86902    1.000000    
    154 O     c    0.890477    0.184770    0.884519     0.86902    1.000000    
    155 O     c    0.113550    0.184770    0.114529     0.86902    1.000000    
    156 O     c    0.890477    0.801690    0.114529     0.86902    1.000000    
    157 O     c    0.890477    0.184770    0.114529     0.86902    1.000000    
    158 O     c    0.113550    0.801690    0.114529     0.86902    1.000000    
    159 O     c    0.890477    0.801690    0.884519     0.86902    1.000000    
    160 O     c    0.113550    0.184770    0.884519     0.86902    1.000000    
    161 O     c    0.613550    0.301690    0.384519     0.86902    1.000000    
    162 O     c    0.390477    0.684770    0.384519     0.86902    1.000000    
    163 O     c    0.613550    0.684770    0.614529     0.86902    1.000000    
    164 O     c    0.390477    0.301690    0.614529     0.86902    1.000000    
    165 O     c    0.390477    0.684770    0.614529     0.86902    1.000000    
    166 O     c    0.613550    0.301690    0.614529     0.86902    1.000000    
    167 O     c    0.390477    0.301690    0.384519     0.86902    1.000000    
    168 O     c    0.613550    0.684770    0.384519     0.86902    1.000000    
    169 O     c    0.089090    0.681512    0.865163     0.86902    1.000000    
    170 O     c    0.914937    0.304948    0.865163     0.86902    1.000000    
    171 O     c    0.089090    0.304948    0.133885     0.86902    1.000000    
    172 O     c    0.914937    0.681512    0.133885     0.86902    1.000000    
    173 O     c    0.914937    0.304948    0.133885     0.86902    1.000000    
    174 O     c    0.089090    0.681512    0.133885     0.86902    1.000000    
    175 O     c    0.914937    0.681512    0.865163     0.86902    1.000000    
    176 O     c    0.089090    0.304948    0.865163     0.86902    1.000000    
    177 O     c    0.589090    0.181512    0.365163     0.86902    1.000000    
    178 O     c    0.414937    0.804948    0.365163     0.86902    1.000000    
    179 O     c    0.589090    0.804948    0.633885     0.86902    1.000000    
    180 O     c    0.414937    0.181512    0.633885     0.86902    1.000000    
    181 O     c    0.414937    0.804948    0.633885     0.86902    1.000000    
    182 O     c    0.589090    0.181512    0.633885     0.86902    1.000000    
    183 O     c    0.414937    0.181512    0.365163     0.86902    1.000000    
    184 O     c    0.589090    0.804948    0.365163     0.86902    1.000000    
    185 O     c    0.002013    0.762294    0.906777     0.86902    1.000000    
    186 O     c    0.002013    0.224166    0.906777     0.86902    1.000000    
    187 O     c    0.002013    0.224166    0.092271     0.86902    1.000000    
    188 O     c    0.002013    0.762294    0.092271     0.86902    1.000000    
    189 O     c    0.502013    0.262294    0.406777     0.86902    1.000000    
    190 O     c    0.502013    0.724166    0.406777     0.86902    1.000000    
    191 O     c    0.502013    0.724166    0.592271     0.86902    1.000000    
    192 O     c    0.502013    0.262294    0.592271     0.86902    1.000000    
    193 O     c    0.087124    0.725825    0.999524     0.86902    1.000000    
    194 O     c    0.916902    0.260635    0.999524     0.86902    1.000000    
    195 O     c    0.087124    0.260635    0.999524     0.86902    1.000000    
    196 O     c    0.916902    0.725825    0.999524     0.86902    1.000000    
    197 O     c    0.587124    0.225825    0.499524     0.86902    1.000000    
    198 O     c    0.416902    0.760635    0.499524     0.86902    1.000000    
    199 O     c    0.587124    0.760635    0.499524     0.86902    1.000000    
    200 O     c    0.416902    0.225825    0.499524     0.86902    1.000000    
    201 O     c    0.214152    0.402747    0.499524     0.86902    1.000000    
    202 O     c    0.789874    0.583714    0.499524     0.86902    1.000000    
    203 O     c    0.214152    0.583714    0.499524     0.86902    1.000000    
    204 O     c    0.789874    0.402747    0.499524     0.86902    1.000000    
    205 O     c    0.714152    0.902747    0.999524     0.86902    1.000000    
    206 O     c    0.289874    0.083714    0.999524     0.86902    1.000000    
    207 O     c    0.714152    0.083714    0.999524     0.86902    1.000000    
    208 O     c    0.289874    0.902747    0.999524     0.86902    1.000000    
    209 O     c    0.251522    0.493230    0.408870     0.86902    1.000000    
    210 O     c    0.752504    0.493230    0.408870     0.86902    1.000000    
    211 O     c    0.251522    0.493230    0.590178     0.86902    1.000000    
    212 O     c    0.752504    0.493230    0.590178     0.86902    1.000000    
    213 O     c    0.751522    0.993230    0.908870     0.86902    1.000000    
    214 O     c    0.252504    0.993230    0.908870     0.86902    1.000000    
    215 O     c    0.751522    0.993230    0.090178     0.86902    1.000000    
    216 O     c    0.252504    0.993230    0.090178     0.86902    1.000000    
    217 O     c    0.291668    0.375084    0.391741     0.86902    1.000000    
    218 O     c    0.712359    0.611376    0.391741     0.86902    1.000000    
    219 O     c    0.291668    0.611376    0.607307     0.86902    1.000000    
    220 O     c    0.712359    0.375084    0.607307     0.86902    1.000000    
    221 O     c    0.712359    0.611376    0.607307     0.86902    1.000000    
    222 O     c    0.291668    0.375084    0.607307     0.86902    1.000000    
    223 O     c    0.712359    0.375084    0.391741     0.86902    1.000000    
    224 O     c    0.291668    0.611376    0.391741     0.86902    1.000000    
    225 O     c    0.791668    0.875084    0.891741     0.86902    1.000000    
    226 O     c    0.212359    0.111376    0.891741     0.86902    1.000000    
    227 O     c    0.791668    0.111376    0.107307     0.86902    1.000000    
    228 O     c    0.212359    0.875084    0.107307     0.86902    1.000000    
    229 O     c    0.212359    0.111376    0.107307     0.86902    1.000000    
    230 O     c    0.791668    0.875084    0.107307     0.86902    1.000000    
    231 O     c    0.212359    0.875084    0.891741     0.86902    1.000000    
    232 O     c    0.791668    0.111376    0.891741     0.86902    1.000000    
    233 O     c    0.178919    0.399172    0.362340     0.86902    1.000000    
    234 O     c    0.825108    0.587288    0.362340     0.86902    1.000000    
    235 O     c    0.178919    0.587288    0.636708     0.86902    1.000000    
    236 O     c    0.825108    0.399172    0.636708     0.86902    1.000000    
    237 O     c    0.825108    0.587288    0.636708     0.86902    1.000000    
    238 O     c    0.178919    0.399172    0.636708     0.86902    1.000000    
    239 O     c    0.825108    0.399172    0.362340     0.86902    1.000000    
    240 O     c    0.178919    0.587288    0.362340     0.86902    1.000000    
    241 O     c    0.678919    0.899172    0.862340     0.86902    1.000000    
    242 O     c    0.325108    0.087288    0.862340     0.86902    1.000000    
    243 O     c    0.678919    0.087288    0.136708     0.86902    1.000000    
    244 O     c    0.325108    0.899172    0.136708     0.86902    1.000000    
    245 O     c    0.325108    0.087288    0.136708     0.86902    1.000000    
    246 O     c    0.678919    0.899172    0.136708     0.86902    1.000000    
    247 O     c    0.325108    0.899172    0.862340     0.86902    1.000000    
    248 O     c    0.678919    0.087288    0.862340     0.86902    1.000000    
    249 O     c    0.870539    0.114478    0.999524     0.86902    1.000000    
    250 O     c    0.133487    0.871982    0.999524     0.86902    1.000000    
    251 O     c    0.870539    0.871982    0.999524     0.86902    1.000000    
    252 O     c    0.133487    0.114478    0.999524     0.86902    1.000000    
    253 O     c    0.370539    0.614478    0.499524     0.86902    1.000000    
    254 O     c    0.633487    0.371982    0.499524     0.86902    1.000000    
    255 O     c    0.370539    0.371982    0.499524     0.86902    1.000000    
    256 O     c    0.633487    0.614478    0.499524     0.86902    1.000000    
    257 O     c    0.406825    0.929352    0.377162     0.86902    1.000000    
    258 O     c    0.597202    0.057108    0.377162     0.86902    1.000000    
    259 O     c    0.406825    0.057108    0.621886     0.86902    1.000000    
    260 O     c    0.597202    0.929352    0.621886     0.86902    1.000000    
    261 O     c    0.597202    0.057108    0.621886     0.86902    1.000000    
    262 O     c    0.406825    0.929352    0.621886     0.86902    1.000000    
    263 O     c    0.597202    0.929352    0.377162     0.86902    1.000000    
    264 O     c    0.406825    0.057108    0.377162     0.86902    1.000000    
    265 O     c    0.906825    0.429352    0.877162     0.86902    1.000000    
    266 O     c    0.097202    0.557108    0.877162     0.86902    1.000000    
    267 O     c    0.906825    0.557108    0.121886     0.86902    1.000000    
    268 O     c    0.097202    0.429352    0.121886     0.86902    1.000000    
    269 O     c    0.097202    0.557108    0.121886     0.86902    1.000000    
    270 O     c    0.906825    0.429352    0.121886     0.86902    1.000000    
    271 O     c    0.097202    0.429352    0.877162     0.86902    1.000000    
    272 O     c    0.906825    0.557108    0.877162     0.86902    1.000000    
    273 O     c    0.502013    0.993230    0.423858     0.86902    1.000000    
    274 O     c    0.502013    0.993230    0.575190     0.86902    1.000000    
    275 O     c    0.002013    0.493230    0.923858     0.86902    1.000000    
    276 O     c    0.002013    0.493230    0.075190     0.86902    1.000000    
    277 O     c    0.401043    0.993230    0.499524     0.86902    1.000000    
    278 O     c    0.602984    0.993230    0.499524     0.86902    1.000000    
    279 O     c    0.901043    0.493230    0.999524     0.86902    1.000000    
    280 O     c    0.102984    0.493230    0.999524     0.86902    1.000000    
    281 O     c    0.893037    0.610124    0.750009     0.86902    1.000000    
    282 O     c    0.110990    0.376336    0.750009     0.86902    1.000000    
    283 O     c    0.893037    0.376336    0.249039     0.86902    1.000000    
    284 O     c    0.110990    0.610124    0.249039     0.86902    1.000000    
    285 O     c    0.110990    0.376336    0.249039     0.86902    1.000000    
    286 O     c    0.893037    0.610124    0.249039     0.86902    1.000000    
    287 O     c    0.110990    0.610124    0.750009     0.86902    1.000000    
    288 O     c    0.893037    0.376336    0.750009     0.86902    1.000000    
    289 O     c    0.393037    0.110124    0.250009     0.86902    1.000000    
    290 O     c    0.610990    0.876336    0.250009     0.86902    1.000000    
    291 O     c    0.393037    0.876336    0.749039     0.86902    1.000000    
    292 O     c    0.610990    0.110124    0.749039     0.86902    1.000000    
    293 O     c    0.610990    0.876336    0.749039     0.86902    1.000000    
    294 O     c    0.393037    0.110124    0.749039     0.86902    1.000000    
    295 O     c    0.610990    0.110124    0.250009     0.86902    1.000000    
    296 O     c    0.393037    0.876336    0.250009     0.86902    1.000000    
    297 O     c    0.002013    0.607000    0.808474     0.86902    1.000000    
    298 O     c    0.002013    0.379460    0.808474     0.86902    1.000000    
    299 O     c    0.002013    0.379460    0.190573     0.86902    1.000000    
    300 O     c    0.002013    0.607000    0.190573     0.86902    1.000000    
    301 O     c    0.502013    0.107000    0.308474     0.86902    1.000000    
    302 O     c    0.502013    0.879460    0.308474     0.86902    1.000000    
    303 O     c    0.502013    0.879460    0.690573     0.86902    1.000000    
    304 O     c    0.502013    0.107000    0.690573     0.86902    1.000000    
    305 O     c    0.609197    0.993230    0.191538     0.86902    1.000000    
    306 O     c    0.394830    0.993230    0.191538     0.86902    1.000000    
    307 O     c    0.609197    0.993230    0.807510     0.86902    1.000000    
    308 O     c    0.394830    0.993230    0.807510     0.86902    1.000000    
    309 O     c    0.109197    0.493230    0.691538     0.86902    1.000000    
    310 O     c    0.894830    0.493230    0.691538     0.86902    1.000000    
    311 O     c    0.109197    0.493230    0.307510     0.86902    1.000000    
    312 O     c    0.894830    0.493230    0.307510     0.86902    1.000000    
    313 O     s    0.061978 *  0.594281 *  0.376753 *  -2.86902    1.000000    
    314 O     s    0.942049 *  0.392179 *  0.376753 *  -2.86902    1.000000    
    315 O     s    0.061978 *  0.392179 *  0.622294 *  -2.86902    1.000000    
    316 O     s    0.942049 *  0.594281 *  0.622294 *  -2.86902    1.000000    
    317 O     s    0.942049 *  0.392179 *  0.622294 *  -2.86902    1.000000    
    318 O     s    0.061978 *  0.594281 *  0.622294 *  -2.86902    1.000000    
    319 O     s    0.942049 *  0.594281 *  0.376753 *  -2.86902    1.000000    
    320 O     s    0.061978 *  0.392179 *  0.376753 *  -2.86902    1.000000    
    321 O     s    0.561978 *  0.094281 *  0.876753 *  -2.86902    1.000000    
    322 O     s    0.442049 *  0.892179 *  0.876753 *  -2.86902    1.000000    
    323 O     s    0.561978 *  0.892179 *  0.122294 *  -2.86902    1.000000    
    324 O     s    0.442049 *  0.094281 *  0.122294 *  -2.86902    1.000000    
    325 O     s    0.442049 *  0.892179 *  0.122294 *  -2.86902    1.000000    
    326 O     s    0.561978 *  0.094281 *  0.122294 *  -2.86902    1.000000    
    327 O     s    0.442049 *  0.094281 *  0.876753 *  -2.86902    1.000000    
    328 O     s    0.561978 *  0.892179 *  0.876753 *  -2.86902    1.000000    
    329 O     s    0.002013 *  0.493230 *  0.424043 *  -2.86902    1.000000    
    330 O     s    0.002013 *  0.493230 *  0.575005 *  -2.86902    1.000000    
    331 O     s    0.502013 *  0.993230 *  0.924043 *  -2.86902    1.000000    
    332 O     s    0.502013 *  0.993230 *  0.075005 *  -2.86902    1.000000    
    333 O     s    0.002013 *  0.600820 *  0.499524 *  -2.86902    1.000000    
    334 O     s    0.002013 *  0.385640 *  0.499524 *  -2.86902    1.000000    
    335 O     s    0.502013 *  0.100820 *  0.999524 *  -2.86902    1.000000    
    336 O     s    0.502013 *  0.885640 *  0.999524 *  -2.86902    1.000000    
    337 O     s    0.103902 *  0.929547 *  0.879524 *  -2.86902    1.000000    
    338 O     s    0.900124 *  0.056913 *  0.879524 *  -2.86902    1.000000    
    339 O     s    0.103902 *  0.056913 *  0.119524 *  -2.86902    1.000000    
    340 O     s    0.900124 *  0.929547 *  0.119524 *  -2.86902    1.000000    
    341 O     s    0.900124 *  0.056913 *  0.119524 *  -2.86902    1.000000    
    342 O     s    0.103902 *  0.929547 *  0.119524 *  -2.86902    1.000000    
    343 O     s    0.900124 *  0.929547 *  0.879524 *  -2.86902    1.000000    
    344 O     s    0.103902 *  0.056913 *  0.879524 *  -2.86902    1.000000    
    345 O     s    0.603902 *  0.429547 *  0.379524 *  -2.86902    1.000000    
    346 O     s    0.400124 *  0.556913 *  0.379524 *  -2.86902    1.000000    
    347 O     s    0.603902 *  0.556913 *  0.619524 *  -2.86902    1.000000    
    348 O     s    0.400124 *  0.429547 *  0.619524 *  -2.86902    1.000000    
    349 O     s    0.400124 *  0.556913 *  0.619524 *  -2.86902    1.000000    
    350 O     s    0.603902 *  0.429547 *  0.619524 *  -2.86902    1.000000    
    351 O     s    0.400124 *  0.429547 *  0.379524 *  -2.86902    1.000000    
    352 O     s    0.603902 *  0.556913 *  0.379524 *  -2.86902    1.000000    
    353 O     s    0.002013 *  0.993230 *  0.883486 *  -2.86902    1.000000    
    354 O     s    0.002013 *  0.993230 *  0.115561 *  -2.86902    1.000000    
    355 O     s    0.502013 *  0.493230 *  0.383487 *  -2.86902    1.000000    
    356 O     s    0.502013 *  0.493230 *  0.615561 *  -2.86902    1.000000    
    357 O     s    0.073668 *  0.993230 *  0.999524 *  -2.86902    1.000000    
    358 O     s    0.930359 *  0.993230 *  0.999524 *  -2.86902    1.000000    
    359 O     s    0.573668 *  0.493230 *  0.499524 *  -2.86902    1.000000    
    360 O     s    0.430359 *  0.493230 *  0.499524 *  -2.86902    1.000000    
    361 O     s    0.113550 *  0.801690 *  0.884519 *  -2.86902    1.000000    
    362 O     s    0.890477 *  0.184770 *  0.884519 *  -2.86902    1.000000    
    363 O     s    0.113550 *  0.184770 *  0.114529 *  -2.86902    1.000000    
    364 O     s    0.890477 *  0.801690 *  0.114529 *  -2.86902    1.000000    
    365 O     s    0.890477 *  0.184770 *  0.114529 *  -2.86902    1.000000    
    366 O     s    0.113550 *  0.801690 *  0.114529 *  -2.86902    1.000000    
    367 O     s    0.890477 *  0.801690 *  0.884519 *  -2.86902    1.000000    
    368 O     s    0.113550 *  0.184770 *  0.884519 *  -2.86902    1.000000    
    369 O     s    0.613550 *  0.301690 *  0.384519 *  -2.86902    1.000000    
    370 O     s    0.390477 *  0.684770 *  0.384519 *  -2.86902    1.000000    
    371 O     s    0.613550 *  0.684770 *  0.614529 *  -2.86902    1.000000    
    372 O     s    0.390477 *  0.301690 *  0.614529 *  -2.86902    1.000000    
    373 O     s    0.390477 *  0.684770 *  0.614529 *  -2.86902    1.000000    
    374 O     s    0.613550 *  0.301690 *  0.614529 *  -2.86902    1.000000    
    375 O     s    0.390477 *  0.301690 *  0.384519 *  -2.86902    1.000000    
    376 O     s    0.613550 *  0.684770 *  0.384519 *  -2.86902    1.000000    
    377 O     s    0.089090 *  0.681512 *  0.865163 *  -2.86902    1.000000    
    378 O     s    0.914937 *  0.304948 *  0.865163 *  -2.86902    1.000000    
    379 O     s    0.089090 *  0.304948 *  0.133885 *  -2.86902    1.000000    
    380 O     s    0.914937 *  0.681512 *  0.133885 *  -2.86902    1.000000    
    381 O     s    0.914937 *  0.304948 *  0.133885 *  -2.86902    1.000000    
    382 O     s    0.089090 *  0.681512 *  0.133885 *  -2.86902    1.000000    
    383 O     s    0.914937 *  0.681512 *  0.865163 *  -2.86902    1.000000    
    384 O     s    0.089090 *  0.304948 *  0.865163 *  -2.86902    1.000000    
    385 O     s    0.589090 *  0.181512 *  0.365163 *  -2.86902    1.000000    
    386 O     s    0.414937 *  0.804948 *  0.365163 *  -2.86902    1.000000    
    387 O     s    0.589090 *  0.804948 *  0.633885 *  -2.86902    1.000000    
    388 O     s    0.414937 *  0.181512 *  0.633885 *  -2.86902    1.000000    
    389 O     s    0.414937 *  0.804948 *  0.633885 *  -2.86902    1.000000    
    390 O     s    0.589090 *  0.181512 *  0.633885 *  -2.86902    1.000000    
    391 O     s    0.414937 *  0.181512 *  0.365163 *  -2.86902    1.000000    
    392 O     s    0.589090 *  0.804948 *  0.365163 *  -2.86902    1.000000    
    393 O     s    0.002013 *  0.762294 *  0.906777 *  -2.86902    1.000000    
    394 O     s    0.002013 *  0.224166 *  0.906777 *  -2.86902    1.000000    
    395 O     s    0.002013 *  0.224166 *  0.092271 *  -2.86902    1.000000    
    396 O     s    0.002013 *  0.762294 *  0.092271 *  -2.86902    1.000000    
    397 O     s    0.502013 *  0.262294 *  0.406777 *  -2.86902    1.000000    
    398 O     s    0.502013 *  0.724166 *  0.406777 *  -2.86902    1.000000    
    399 O     s    0.502013 *  0.724166 *  0.592271 *  -2.86902    1.000000    
    400 O     s    0.502013 *  0.262294 *  0.592271 *  -2.86902    1.000000    
    401 O     s    0.087124 *  0.725825 *  0.999524 *  -2.86902    1.000000    
    402 O     s    0.916902 *  0.260635 *  0.999524 *  -2.86902    1.000000    
    403 O     s    0.087124 *  0.260635 *  0.999524 *  -2.86902    1.000000    
    404 O     s    0.916902 *  0.725825 *  0.999524 *  -2.86902    1.000000    
    405 O     s    0.587124 *  0.225825 *  0.499524 *  -2.86902    1.000000    
    406 O     s    0.416902 *  0.760635 *  0.499524 *  -2.86902    1.000000    
    407 O     s    0.587124 *  0.760635 *  0.499524 *  -2.86902    1.000000    
    408 O     s    0.416902 *  0.225825 *  0.499524 *  -2.86902    1.000000    
    409 O     s    0.214152 *  0.402747 *  0.499524 *  -2.86902    1.000000    
    410 O     s    0.789874 *  0.583714 *  0.499524 *  -2.86902    1.000000    
    411 O     s    0.214152 *  0.583714 *  0.499524 *  -2.86902    1.000000    
    412 O     s    0.789874 *  0.402747 *  0.499524 *  -2.86902    1.000000    
    413 O     s    0.714152 *  0.902747 *  0.999524 *  -2.86902    1.000000    
    414 O     s    0.289874 *  0.083714 *  0.999524 *  -2.86902    1.000000    
    415 O     s    0.714152 *  0.083714 *  0.999524 *  -2.86902    1.000000    
    416 O     s    0.289874 *  0.902747 *  0.999524 *  -2.86902    1.000000    
    417 O     s    0.251522 *  0.493230 *  0.408870 *  -2.86902    1.000000    
    418 O     s    0.752504 *  0.493230 *  0.408870 *  -2.86902    1.000000    
    419 O     s    0.251522 *  0.493230 *  0.590178 *  -2.86902    1.000000    
    420 O     s    0.752504 *  0.493230 *  0.590178 *  -2.86902    1.000000    
    421 O     s    0.751522 *  0.993230 *  0.908870 *  -2.86902    1.000000    
    422 O     s    0.252504 *  0.993230 *  0.908870 *  -2.86902    1.000000    
    423 O     s    0.751522 *  0.993230 *  0.090178 *  -2.86902    1.000000    
    424 O     s    0.252504 *  0.993230 *  0.090178 *  -2.86902    1.000000    
    425 O     s    0.291668 *  0.375084 *  0.391741 *  -2.86902    1.000000    
    426 O     s    0.712359 *  0.611376 *  0.391741 *  -2.86902    1.000000    
    427 O     s    0.291668 *  0.611376 *  0.607307 *  -2.86902    1.000000    
    428 O     s    0.712359 *  0.375084 *  0.607307 *  -2.86902    1.000000    
    429 O     s    0.712359 *  0.611376 *  0.607307 *  -2.86902    1.000000    
    430 O     s    0.291668 *  0.375084 *  0.607307 *  -2.86902    1.000000    
    431 O     s    0.712359 *  0.375084 *  0.391741 *  -2.86902    1.000000    
    432 O     s    0.291668 *  0.611376 *  0.391741 *  -2.86902    1.000000    
    433 O     s    0.791668 *  0.875084 *  0.891741 *  -2.86902    1.000000    
    434 O     s    0.212359 *  0.111376 *  0.891741 *  -2.86902    1.000000    
    435 O     s    0.791668 *  0.111376 *  0.107307 *  -2.86902    1.000000    
    436 O     s    0.212359 *  0.875084 *  0.107307 *  -2.86902    1.000000    
    437 O     s    0.212359 *  0.111376 *  0.107307 *  -2.86902    1.000000    
    438 O     s    0.791668 *  0.875084 *  0.107307 *  -2.86902    1.000000    
    439 O     s    0.212359 *  0.875084 *  0.891741 *  -2.86902    1.000000    
    440 O     s    0.791668 *  0.111376 *  0.891741 *  -2.86902    1.000000    
    441 O     s    0.178919 *  0.399172 *  0.362340 *  -2.86902    1.000000    
    442 O     s    0.825108 *  0.587288 *  0.362340 *  -2.86902    1.000000    
    443 O     s    0.178919 *  0.587288 *  0.636708 *  -2.86902    1.000000    
    444 O     s    0.825108 *  0.399172 *  0.636708 *  -2.86902    1.000000    
    445 O     s    0.825108 *  0.587288 *  0.636708 *  -2.86902    1.000000    
    446 O     s    0.178919 *  0.399172 *  0.636708 *  -2.86902    1.000000    
    447 O     s    0.825108 *  0.399172 *  0.362340 *  -2.86902    1.000000    
    448 O     s    0.178919 *  0.587288 *  0.362340 *  -2.86902    1.000000    
    449 O     s    0.678919 *  0.899172 *  0.862340 *  -2.86902    1.000000    
    450 O     s    0.325108 *  0.087288 *  0.862340 *  -2.86902    1.000000    
    451 O     s    0.678919 *  0.087288 *  0.136708 *  -2.86902    1.000000    
    452 O     s    0.325108 *  0.899172 *  0.136708 *  -2.86902    1.000000    
    453 O     s    0.325108 *  0.087288 *  0.136708 *  -2.86902    1.000000    
    454 O     s    0.678919 *  0.899172 *  0.136708 *  -2.86902    1.000000    
    455 O     s    0.325108 *  0.899172 *  0.862340 *  -2.86902    1.000000    
    456 O     s    0.678919 *  0.087288 *  0.862340 *  -2.86902    1.000000    
    457 O     s    0.870539 *  0.114478 *  0.999524 *  -2.86902    1.000000    
    458 O     s    0.133487 *  0.871982 *  0.999524 *  -2.86902    1.000000    
    459 O     s    0.870539 *  0.871982 *  0.999524 *  -2.86902    1.000000    
    460 O     s    0.133487 *  0.114478 *  0.999524 *  -2.86902    1.000000    
    461 O     s    0.370539 *  0.614478 *  0.499524 *  -2.86902    1.000000    
    462 O     s    0.633487 *  0.371982 *  0.499524 *  -2.86902    1.000000    
    463 O     s    0.370539 *  0.371982 *  0.499524 *  -2.86902    1.000000    
    464 O     s    0.633487 *  0.614478 *  0.499524 *  -2.86902    1.000000    
    465 O     s    0.406825 *  0.929352 *  0.377162 *  -2.86902    1.000000    
    466 O     s    0.597202 *  0.057108 *  0.377162 *  -2.86902    1.000000    
    467 O     s    0.406825 *  0.057108 *  0.621886 *  -2.86902    1.000000    
    468 O     s    0.597202 *  0.929352 *  0.621886 *  -2.86902    1.000000    
    469 O     s    0.597202 *  0.057108 *  0.621886 *  -2.86902    1.000000    
    470 O     s    0.406825 *  0.929352 *  0.621886 *  -2.86902    1.000000    
    471 O     s    0.597202 *  0.929352 *  0.377162 *  -2.86902    1.000000    
    472 O     s    0.406825 *  0.057108 *  0.377162 *  -2.86902    1.000000    
    473 O     s    0.906825 *  0.429352 *  0.877162 *  -2.86902    1.000000    
    474 O     s    0.097202 *  0.557108 *  0.877162 *  -2.86902    1.000000    
    475 O     s    0.906825 *  0.557108 *  0.121886 *  -2.86902    1.000000    
    476 O     s    0.097202 *  0.429352 *  0.121886 *  -2.86902    1.000000    
    477 O     s    0.097202 *  0.557108 *  0.121886 *  -2.86902    1.000000    
    478 O     s    0.906825 *  0.429352 *  0.121886 *  -2.86902    1.000000    
    479 O     s    0.097202 *  0.429352 *  0.877162 *  -2.86902    1.000000    
    480 O     s    0.906825 *  0.557108 *  0.877162 *  -2.86902    1.000000    
    481 O     s    0.502013 *  0.993230 *  0.423858 *  -2.86902    1.000000    
    482 O     s    0.502013 *  0.993230 *  0.575190 *  -2.86902    1.000000    
    483 O     s    0.002013 *  0.493230 *  0.923858 *  -2.86902    1.000000    
    484 O     s    0.002013 *  0.493230 *  0.075190 *  -2.86902    1.000000    
    485 O     s    0.401043 *  0.993230 *  0.499524 *  -2.86902    1.000000    
    486 O     s    0.602984 *  0.993230 *  0.499524 *  -2.86902    1.000000    
    487 O     s    0.901043 *  0.493230 *  0.999524 *  -2.86902    1.000000    
    488 O     s    0.102984 *  0.493230 *  0.999524 *  -2.86902    1.000000    
    489 O     s    0.893037 *  0.610124 *  0.750009 *  -2.86902    1.000000    
    490 O     s    0.110990 *  0.376336 *  0.750009 *  -2.86902    1.000000    
    491 O     s    0.893037 *  0.376336 *  0.249039 *  -2.86902    1.000000    
    492 O     s    0.110990 *  0.610124 *  0.249039 *  -2.86902    1.000000    
    493 O     s    0.110990 *  0.376336 *  0.249039 *  -2.86902    1.000000    
    494 O     s    0.893037 *  0.610124 *  0.249039 *  -2.86902    1.000000    
    495 O     s    0.110990 *  0.610124 *  0.750009 *  -2.86902    1.000000    
    496 O     s    0.893037 *  0.376336 *  0.750009 *  -2.86902    1.000000    
    497 O     s    0.393037 *  0.110124 *  0.250009 *  -2.86902    1.000000    
    498 O     s    0.610990 *  0.876336 *  0.250009 *  -2.86902    1.000000    
    499 O     s    0.393037 *  0.876336 *  0.749039 *  -2.86902    1.000000    
    500 O     s    0.610990 *  0.110124 *  0.749039 *  -2.86902    1.000000    
    501 O     s    0.610990 *  0.876336 *  0.749039 *  -2.86902    1.000000    
    502 O     s    0.393037 *  0.110124 *  0.749039 *  -2.86902    1.000000    
    503 O     s    0.610990 *  0.110124 *  0.250009 *  -2.86902    1.000000    
    504 O     s    0.393037 *  0.876336 *  0.250009 *  -2.86902    1.000000    
    505 O     s    0.002013 *  0.607000 *  0.808474 *  -2.86902    1.000000    
    506 O     s    0.002013 *  0.379460 *  0.808474 *  -2.86902    1.000000    
    507 O     s    0.002013 *  0.379460 *  0.190573 *  -2.86902    1.000000    
    508 O     s    0.002013 *  0.607000 *  0.190573 *  -2.86902    1.000000    
    509 O     s    0.502013 *  0.107000 *  0.308474 *  -2.86902    1.000000    
    510 O     s    0.502013 *  0.879460 *  0.308474 *  -2.86902    1.000000    
    511 O     s    0.502013 *  0.879460 *  0.690573 *  -2.86902    1.000000    
    512 O     s    0.502013 *  0.107000 *  0.690573 *  -2.86902    1.000000    
    513 O     s    0.609197 *  0.993230 *  0.191538 *  -2.86902    1.000000    
    514 O     s    0.394830 *  0.993230 *  0.191538 *  -2.86902    1.000000    
    515 O     s    0.609197 *  0.993230 *  0.807510 *  -2.86902    1.000000    
    516 O     s    0.394830 *  0.993230 *  0.807510 *  -2.86902    1.000000    
    517 O     s    0.109197 *  0.493230 *  0.691538 *  -2.86902    1.000000    
    518 O     s    0.894830 *  0.493230 *  0.691538 *  -2.86902    1.000000    
    519 O     s    0.109197 *  0.493230 *  0.307510 *  -2.86902    1.000000    
    520 O     s    0.894830 *  0.493230 *  0.307510 *  -2.86902    1.000000    
--------------------------------------------------------------------------------



********************************************************************************
*  General input information                                                   *
********************************************************************************

  Species output for all configurations : 

--------------------------------------------------------------------------------
  Species    Type    Atomic    Atomic    Charge       Radii (Angs)     Library
                     Number     Mass       (e)     Cova   Ionic  VDW   Symbol
--------------------------------------------------------------------------------
    O        Core        8      16.00   0.869020   0.730  0.000  1.360 O        
    O        Shell       8       0.00  -2.869020   0.730  0.000  0.000 O        
    Si       Core       14      28.09   4.000000   1.200  0.000  2.100 Si       
--------------------------------------------------------------------------------


  Lattice summation method               =    Ewald          (3-D)
                                         =    Parry          (2-D)
                                         =    Saunders et al (1-D)
  Accuracy factor for lattice sums       =   12.000


  Analytic derivatives to be used

  Time limit = Infinity

  Maximum range for interatomic potentials =    100000.000000 Angstroms

  General interatomic potentials :

--------------------------------------------------------------------------------
Atom  Types   Potential      Parameter       Value         Units   Cutoffs(Ang)
  1     2                                                            Min /  Max 
--------------------------------------------------------------------------------
Si   c O    s Buckingham    Buckingham A     1283.9070    eV        0.000 10.000
                            Buckingham rho  0.32052000    Ang       
                            Buckingham C     10.661580    eV*Ang^6  
--------------------------------------------------------------------------------
O    s O    s Buckingham    Buckingham A     22764.000    eV        0.000 12.000
                            Buckingham rho  0.14900000    Ang       
                            Buckingham C     27.879000    eV*Ang^6  
--------------------------------------------------------------------------------
O    c O    s Spring (c-s)  Spring k 2       74.920000    eV*Ang^-2 0.000  1.100
                            Spring k 4       0.0000000    eV*Ang^-4 
--------------------------------------------------------------------------------

  General Three-body potentials :

--------------------------------------------------------------------------------
  Atoms       Potential      Parameter       Value         Units   Cutoffs(Ang)
  1 / 2 / 3                                                          Min /  Max 
--------------------------------------------------------------------------------
Si    core    Harmonic      Three-body cnst  2.0972400    eV*rad^-2 0.000  1.900
O     shel                  Three-body angl  109.47000    degrees   0.000  1.900
O     shel                  Three-body k4    0.0000000    eV*rad^-4 0.000  3.500
                            Three-body k3    0.0000000    eV*rad^-3 
--------------------------------------------------------------------------------
Si    core    Harmonic      Three-body cnst  2.0972400    eV*rad^-2 0.000  1.900
O     shel                  Three-body angl  109.47000    degrees   0.000  1.900
õ(    shel                  Three-body k4    0.0000000    eV*rad^-4 0.000  3.500
                            Three-body k3    0.0000000    eV*rad^-3 
--------------------------------------------------------------------------------
Si    core    Harmonic      Three-body cnst  2.0972400    eV*rad^-2 0.000  1.900
õ(    shel                  Three-body angl  109.47000    degrees   0.000  1.900
õ(    shel                  Three-body k4    0.0000000    eV*rad^-4 0.000  3.500
                            Three-body k3    0.0000000    eV*rad^-3 
--------------------------------------------------------------------------------

********************************************************************************
*  Output for configuration   1 : ReferenceDataBase/8286937_111                *
********************************************************************************


  Components of energy : 

--------------------------------------------------------------------------------
  Interatomic potentials     =        3260.39453541 eV    
  Three-body potentials      =           0.50220097 eV    
  Monopole - monopole (real) =      -13457.15875080 eV    
  Monopole - monopole (recip)=       -2988.01878861 eV    
  Monopole - monopole (total)=      -16445.17753941 eV    
--------------------------------------------------------------------------------
  Total lattice energy       =      -13184.28080303 eV    
--------------------------------------------------------------------------------
  Total lattice energy       =        -1272081.5573 kJ/(mole unit cells)
--------------------------------------------------------------------------------


  Number of variables =      624

  Maximum number of calculations  =           500
  Maximum Hessian update interval =            10
  Maximum step size               =   0.100000000
  Maximum parameter tolerance     =   0.000010000
  Maximum function  tolerance     =   0.000010000
  Maximum gradient  tolerance     =   0.001000000
  Maximum gradient  component     =   0.010000000

  Newton-Raphson optimiser to be used

  BFGS hessian update to be used

  Lower half triangular hessian to be used

  Minimiser to switch to RFO
  When gradient norm is less than     0.080000

  Switch max step size to       0.30000000 when gnorm is less than     0.005000

  Shell only optimisation

  Dumpfile to be written after every cycle

  Start of bulk optimisation :

  Cycle:      0 Energy:    -13184.280803  Gnorm:      7.676648  CPU:    2.890
  ** Hessian calculated **
  Cycle:      1 Energy:    -13354.783967  Gnorm:      1.705681  CPU:    4.839
  ** Hessian calculated **
  Cycle:      2 Energy:    -13363.154364  Gnorm:      0.338166  CPU:    9.307
  Cycle:      3 Energy:    -13363.411146  Gnorm:      0.168683  CPU:   10.591
  Cycle:      4 Energy:    -13363.474902  Gnorm:      0.084310  CPU:   11.874
  Cycle:      5 Energy:    -13363.490825  Gnorm:      0.042147  CPU:   13.162
  ** Hessian has required structure
  ** Hessian has required structure
  Cycle:      6 Energy:    -13363.494803  Gnorm:      0.021073  CPU:   18.147
  ** Hessian has required structure
  Cycle:      7 Energy:    -13363.495798  Gnorm:      0.010536  CPU:   20.012
  ** Hessian has required structure
  Cycle:      8 Energy:    -13363.495967  Gnorm:      0.007375  CPU:   21.463
  ** Hessian has required structure
  Cycle:      9 Energy:    -13363.496050  Gnorm:      0.005162  CPU:   22.905
  ** Hessian has required structure
  Cycle:     10 Energy:    -13363.496090  Gnorm:      0.003614  CPU:   24.358
  ** Hessian has required structure
  Cycle:     11 Energy:    -13363.496120  Gnorm:      0.001755  CPU:   25.801
  ** Hessian has required structure
  Cycle:     12 Energy:    -13363.496129  Gnorm:      0.000299  CPU:   27.387
  ** Hessian has required structure


  **** Optimisation achieved ****


  Final energy =  -13363.49612924 eV      
  Final Gnorm  =       0.00002993

  Components of energy : 

--------------------------------------------------------------------------------
  Interatomic potentials     =        3641.67321210 eV    
  Three-body potentials      =           2.42336740 eV    
  Monopole - monopole (real) =      -12771.38158201 eV    
  Monopole - monopole (recip)=       -4236.21112672 eV    
  Monopole - monopole (total)=      -17007.59270873 eV    
--------------------------------------------------------------------------------
  Total lattice energy       =      -13363.49612924 eV    
--------------------------------------------------------------------------------
  Total lattice energy       =        -1289373.0967 kJ/(mole unit cells)
--------------------------------------------------------------------------------

  Final fractional coordinates of atoms :

--------------------------------------------------------------------------------
   No.  Atomic        x           y          z          Radius
        Label       (Frac)      (Frac)     (Frac)       (Angs) 
--------------------------------------------------------------------------------
     1  Si    c     0.002013    0.570199    0.418417    0.000000
     2  Si    c     0.002013    0.416261    0.418417    0.000000
     3  Si    c     0.002013    0.416261    0.580631    0.000000
     4  Si    c     0.002013    0.570199    0.580631    0.000000
     5  Si    c     0.502013    0.070199    0.918417    0.000000
     6  Si    c     0.502013    0.916261    0.918417    0.000000
     7  Si    c     0.502013    0.916261    0.080631    0.000000
     8  Si    c     0.502013    0.070199    0.080631    0.000000
     9  Si    c     0.070854    0.993230    0.912115    0.000000
    10  Si    c     0.933172    0.993230    0.912115    0.000000
    11  Si    c     0.070854    0.993230    0.086933    0.000000
    12  Si    c     0.933172    0.993230    0.086933    0.000000
    13  Si    c     0.570854    0.493230    0.412115    0.000000
    14  Si    c     0.433172    0.493230    0.412115    0.000000
    15  Si    c     0.570854    0.493230    0.586933    0.000000
    16  Si    c     0.433172    0.493230    0.586933    0.000000
    17  Si    c     0.072548    0.742683    0.914965    0.000000
    18  Si    c     0.931479    0.243777    0.914965    0.000000
    19  Si    c     0.072548    0.243777    0.084083    0.000000
    20  Si    c     0.931479    0.742683    0.084083    0.000000
    21  Si    c     0.931479    0.243777    0.084083    0.000000
    22  Si    c     0.072548    0.742683    0.084083    0.000000
    23  Si    c     0.931479    0.742683    0.914965    0.000000
    24  Si    c     0.072548    0.243777    0.914965    0.000000
    25  Si    c     0.572548    0.242683    0.414965    0.000000
    26  Si    c     0.431479    0.743777    0.414965    0.000000
    27  Si    c     0.572548    0.743777    0.584083    0.000000
    28  Si    c     0.431479    0.242683    0.584083    0.000000
    29  Si    c     0.431479    0.743777    0.584083    0.000000
    30  Si    c     0.572548    0.242683    0.584083    0.000000
    31  Si    c     0.431479    0.242683    0.414965    0.000000
    32  Si    c     0.572548    0.743777    0.414965    0.000000
    33  Si    c     0.233572    0.417823    0.415925    0.000000
    34  Si    c     0.770455    0.568638    0.415925    0.000000
    35  Si    c     0.233572    0.568638    0.583123    0.000000
    36  Si    c     0.770455    0.417823    0.583123    0.000000
    37  Si    c     0.770455    0.568638    0.583123    0.000000
    38  Si    c     0.233572    0.417823    0.583123    0.000000
    39  Si    c     0.770455    0.417823    0.415925    0.000000
    40  Si    c     0.233572    0.568638    0.415925    0.000000
    41  Si    c     0.733572    0.917823    0.915925    0.000000
    42  Si    c     0.270455    0.068638    0.915925    0.000000
    43  Si    c     0.733572    0.068638    0.083123    0.000000
    44  Si    c     0.270455    0.917823    0.083123    0.000000
    45  Si    c     0.270455    0.068638    0.083123    0.000000
    46  Si    c     0.733572    0.917823    0.083123    0.000000
    47  Si    c     0.270455    0.917823    0.915925    0.000000
    48  Si    c     0.733572    0.068638    0.915925    0.000000
    49  Si    c     0.862681    0.117174    0.085897    0.000000
    50  Si    c     0.141345    0.869286    0.085897    0.000000
    51  Si    c     0.862681    0.869286    0.913151    0.000000
    52  Si    c     0.141345    0.117174    0.913151    0.000000
    53  Si    c     0.141345    0.869286    0.913151    0.000000
    54  Si    c     0.862681    0.117174    0.913151    0.000000
    55  Si    c     0.141345    0.117174    0.085897    0.000000
    56  Si    c     0.862681    0.869286    0.085897    0.000000
    57  Si    c     0.362681    0.617174    0.585897    0.000000
    58  Si    c     0.641345    0.369286    0.585897    0.000000
    59  Si    c     0.362681    0.369286    0.413151    0.000000
    60  Si    c     0.641345    0.617174    0.413151    0.000000
    61  Si    c     0.641345    0.369286    0.413151    0.000000
    62  Si    c     0.362681    0.617174    0.413151    0.000000
    63  Si    c     0.641345    0.617174    0.585897    0.000000
    64  Si    c     0.362681    0.369286    0.585897    0.000000
    65  Si    c     0.429744    0.993230    0.418537    0.000000
    66  Si    c     0.574282    0.993230    0.418537    0.000000
    67  Si    c     0.429744    0.993230    0.580511    0.000000
    68  Si    c     0.574282    0.993230    0.580511    0.000000
    69  Si    c     0.929744    0.493230    0.918537    0.000000
    70  Si    c     0.074282    0.493230    0.918537    0.000000
    71  Si    c     0.929744    0.493230    0.080511    0.000000
    72  Si    c     0.074282    0.493230    0.080511    0.000000
    73  Si    c     0.930393    0.614592    0.825291    0.000000
    74  Si    c     0.073634    0.371868    0.825291    0.000000
    75  Si    c     0.930393    0.371868    0.173757    0.000000
    76  Si    c     0.073634    0.614592    0.173757    0.000000
    77  Si    c     0.073634    0.371868    0.173757    0.000000
    78  Si    c     0.930393    0.614592    0.173757    0.000000
    79  Si    c     0.073634    0.614592    0.825291    0.000000
    80  Si    c     0.930393    0.371868    0.825291    0.000000
    81  Si    c     0.430393    0.114592    0.325291    0.000000
    82  Si    c     0.573634    0.871868    0.325291    0.000000
    83  Si    c     0.430393    0.871868    0.673757    0.000000
    84  Si    c     0.573633    0.114592    0.673757    0.000000
    85  Si    c     0.573633    0.871868    0.673757    0.000000
    86  Si    c     0.430393    0.114592    0.673757    0.000000
    87  Si    c     0.573634    0.114592    0.325291    0.000000
    88  Si    c     0.430393    0.871868    0.325291    0.000000
    89  Si    c     0.615556    0.916625    0.175138    0.000000
    90  Si    c     0.388471    0.069835    0.175138    0.000000
    91  Si    c     0.615556    0.069835    0.823910    0.000000
    92  Si    c     0.388471    0.916625    0.823910    0.000000
    93  Si    c     0.388471    0.069835    0.823910    0.000000
    94  Si    c     0.615556    0.916625    0.823910    0.000000
    95  Si    c     0.388471    0.916625    0.175138    0.000000
    96  Si    c     0.615556    0.069835    0.175138    0.000000
    97  Si    c     0.115556    0.416625    0.675138    0.000000
    98  Si    c     0.888471    0.569835    0.675138    0.000000
    99  Si    c     0.115556    0.569835    0.323909    0.000000
   100  Si    c     0.888471    0.416625    0.323909    0.000000
   101  Si    c     0.888471    0.569835    0.323909    0.000000
   102  Si    c     0.115556    0.416625    0.323909    0.000000
   103  Si    c     0.888471    0.416625    0.675138    0.000000
   104  Si    c     0.115556    0.569835    0.675138    0.000000
   105  O     c     0.061978    0.594281    0.376753    0.000000
   106  O     c     0.942049    0.392179    0.376753    0.000000
   107  O     c     0.061978    0.392179    0.622294    0.000000
   108  O     c     0.942049    0.594281    0.622294    0.000000
   109  O     c     0.942049    0.392179    0.622294    0.000000
   110  O     c     0.061978    0.594281    0.622294    0.000000
   111  O     c     0.942049    0.594281    0.376753    0.000000
   112  O     c     0.061978    0.392179    0.376753    0.000000
   113  O     c     0.561978    0.094281    0.876753    0.000000
   114  O     c     0.442049    0.892179    0.876753    0.000000
   115  O     c     0.561978    0.892179    0.122294    0.000000
   116  O     c     0.442049    0.094281    0.122294    0.000000
   117  O     c     0.442049    0.892179    0.122294    0.000000
   118  O     c     0.561978    0.094281    0.122294    0.000000
   119  O     c     0.442049    0.094281    0.876753    0.000000
   120  O     c     0.561978    0.892179    0.876753    0.000000
   121  O     c     0.002013    0.493230    0.424043    0.000000
   122  O     c     0.002013    0.493230    0.575005    0.000000
   123  O     c     0.502013    0.993230    0.924043    0.000000
   124  O     c     0.502013    0.993230    0.075005    0.000000
   125  O     c     0.002013    0.600820    0.499524    0.000000
   126  O     c     0.002013    0.385640    0.499524    0.000000
   127  O     c     0.502013    0.100820    0.999524    0.000000
   128  O     c     0.502013    0.885640    0.999524    0.000000
   129  O     c     0.103902    0.929547    0.879524    0.000000
   130  O     c     0.900124    0.056913    0.879524    0.000000
   131  O     c     0.103902    0.056913    0.119524    0.000000
   132  O     c     0.900124    0.929547    0.119524    0.000000
   133  O     c     0.900124    0.056913    0.119524    0.000000
   134  O     c     0.103902    0.929547    0.119524    0.000000
   135  O     c     0.900124    0.929547    0.879524    0.000000
   136  O     c     0.103902    0.056913    0.879524    0.000000
   137  O     c     0.603902    0.429547    0.379524    0.000000
   138  O     c     0.400124    0.556913    0.379524    0.000000
   139  O     c     0.603902    0.556913    0.619524    0.000000
   140  O     c     0.400124    0.429547    0.619524    0.000000
   141  O     c     0.400124    0.556913    0.619524    0.000000
   142  O     c     0.603902    0.429547    0.619524    0.000000
   143  O     c     0.400124    0.429547    0.379524    0.000000
   144  O     c     0.603902    0.556913    0.379524    0.000000
   145  O     c     0.002013    0.993230    0.883486    0.000000
   146  O     c     0.002013    0.993230    0.115561    0.000000
   147  O     c     0.502013    0.493230    0.383487    0.000000
   148  O     c     0.502013    0.493230    0.615561    0.000000
   149  O     c     0.073668    0.993230    0.999524    0.000000
   150  O     c     0.930359    0.993230    0.999524    0.000000
   151  O     c     0.573668    0.493230    0.499524    0.000000
   152  O     c     0.430359    0.493230    0.499524    0.000000
   153  O     c     0.113550    0.801690    0.884519    0.000000
   154  O     c     0.890477    0.184770    0.884519    0.000000
   155  O     c     0.113550    0.184770    0.114529    0.000000
   156  O     c     0.890477    0.801690    0.114529    0.000000
   157  O     c     0.890477    0.184770    0.114529    0.000000
   158  O     c     0.113550    0.801690    0.114529    0.000000
   159  O     c     0.890477    0.801690    0.884519    0.000000
   160  O     c     0.113550    0.184770    0.884519    0.000000
   161  O     c     0.613550    0.301690    0.384519    0.000000
   162  O     c     0.390477    0.684770    0.384519    0.000000
   163  O     c     0.613550    0.684770    0.614529    0.000000
   164  O     c     0.390477    0.301690    0.614529    0.000000
   165  O     c     0.390477    0.684770    0.614529    0.000000
   166  O     c     0.613550    0.301690    0.614529    0.000000
   167  O     c     0.390477    0.301690    0.384519    0.000000
   168  O     c     0.613550    0.684770    0.384519    0.000000
   169  O     c     0.089090    0.681512    0.865163    0.000000
   170  O     c     0.914937    0.304948    0.865163    0.000000
   171  O     c     0.089090    0.304948    0.133885    0.000000
   172  O     c     0.914937    0.681512    0.133885    0.000000
   173  O     c     0.914937    0.304948    0.133885    0.000000
   174  O     c     0.089090    0.681512    0.133885    0.000000
   175  O     c     0.914937    0.681512    0.865163    0.000000
   176  O     c     0.089090    0.304948    0.865163    0.000000
   177  O     c     0.589090    0.181512    0.365163    0.000000
   178  O     c     0.414937    0.804948    0.365163    0.000000
   179  O     c     0.589090    0.804948    0.633885    0.000000
   180  O     c     0.414937    0.181512    0.633885    0.000000
   181  O     c     0.414937    0.804948    0.633885    0.000000
   182  O     c     0.589090    0.181512    0.633885    0.000000
   183  O     c     0.414937    0.181512    0.365163    0.000000
   184  O     c     0.589090    0.804948    0.365163    0.000000
   185  O     c     0.002013    0.762294    0.906777    0.000000
   186  O     c     0.002013    0.224166    0.906777    0.000000
   187  O     c     0.002013    0.224166    0.092271    0.000000
   188  O     c     0.002013    0.762294    0.092271    0.000000
   189  O     c     0.502013    0.262294    0.406777    0.000000
   190  O     c     0.502013    0.724166    0.406777    0.000000
   191  O     c     0.502013    0.724166    0.592271    0.000000
   192  O     c     0.502013    0.262294    0.592271    0.000000
   193  O     c     0.087124    0.725825    0.999524    0.000000
   194  O     c     0.916902    0.260635    0.999524    0.000000
   195  O     c     0.087124    0.260635    0.999524    0.000000
   196  O     c     0.916902    0.725825    0.999524    0.000000
   197  O     c     0.587124    0.225825    0.499524    0.000000
   198  O     c     0.416902    0.760635    0.499524    0.000000
   199  O     c     0.587124    0.760635    0.499524    0.000000
   200  O     c     0.416902    0.225825    0.499524    0.000000
   201  O     c     0.214152    0.402747    0.499524    0.000000
   202  O     c     0.789874    0.583714    0.499524    0.000000
   203  O     c     0.214152    0.583714    0.499524    0.000000
   204  O     c     0.789874    0.402747    0.499524    0.000000
   205  O     c     0.714152    0.902747    0.999524    0.000000
   206  O     c     0.289874    0.083714    0.999524    0.000000
   207  O     c     0.714152    0.083714    0.999524    0.000000
   208  O     c     0.289874    0.902747    0.999524    0.000000
   209  O     c     0.251522    0.493230    0.408870    0.000000
   210  O     c     0.752504    0.493230    0.408870    0.000000
   211  O     c     0.251522    0.493230    0.590178    0.000000
   212  O     c     0.752504    0.493230    0.590178    0.000000
   213  O     c     0.751522    0.993230    0.908870    0.000000
   214  O     c     0.252504    0.993230    0.908870    0.000000
   215  O     c     0.751522    0.993230    0.090178    0.000000
   216  O     c     0.252504    0.993230    0.090178    0.000000
   217  O     c     0.291668    0.375084    0.391741    0.000000
   218  O     c     0.712359    0.611376    0.391741    0.000000
   219  O     c     0.291668    0.611376    0.607307    0.000000
   220  O     c     0.712359    0.375084    0.607307    0.000000
   221  O     c     0.712359    0.611376    0.607307    0.000000
   222  O     c     0.291668    0.375084    0.607307    0.000000
   223  O     c     0.712359    0.375084    0.391741    0.000000
   224  O     c     0.291668    0.611376    0.391741    0.000000
   225  O     c     0.791668    0.875084    0.891741    0.000000
   226  O     c     0.212359    0.111376    0.891741    0.000000
   227  O     c     0.791668    0.111376    0.107307    0.000000
   228  O     c     0.212359    0.875084    0.107307    0.000000
   229  O     c     0.212359    0.111376    0.107307    0.000000
   230  O     c     0.791668    0.875084    0.107307    0.000000
   231  O     c     0.212359    0.875084    0.891741    0.000000
   232  O     c     0.791668    0.111376    0.891741    0.000000
   233  O     c     0.178919    0.399172    0.362340    0.000000
   234  O     c     0.825108    0.587288    0.362340    0.000000
   235  O     c     0.178919    0.587288    0.636708    0.000000
   236  O     c     0.825108    0.399172    0.636708    0.000000
   237  O     c     0.825108    0.587288    0.636708    0.000000
   238  O     c     0.178919    0.399172    0.636708    0.000000
   239  O     c     0.825108    0.399172    0.362340    0.000000
   240  O     c     0.178919    0.587288    0.362340    0.000000
   241  O     c     0.678919    0.899172    0.862340    0.000000
   242  O     c     0.325108    0.087288    0.862340    0.000000
   243  O     c     0.678919    0.087288    0.136708    0.000000
   244  O     c     0.325108    0.899172    0.136708    0.000000
   245  O     c     0.325108    0.087288    0.136708    0.000000
   246  O     c     0.678919    0.899172    0.136708    0.000000
   247  O     c     0.325108    0.899172    0.862340    0.000000
   248  O     c     0.678919    0.087288    0.862340    0.000000
   249  O     c     0.870539    0.114478    0.999524    0.000000
   250  O     c     0.133487    0.871982    0.999524    0.000000
   251  O     c     0.870539    0.871982    0.999524    0.000000
   252  O     c     0.133487    0.114478    0.999524    0.000000
   253  O     c     0.370539    0.614478    0.499524    0.000000
   254  O     c     0.633487    0.371982    0.499524    0.000000
   255  O     c     0.370539    0.371982    0.499524    0.000000
   256  O     c     0.633487    0.614478    0.499524    0.000000
   257  O     c     0.406825    0.929352    0.377162    0.000000
   258  O     c     0.597202    0.057108    0.377162    0.000000
   259  O     c     0.406825    0.057108    0.621886    0.000000
   260  O     c     0.597202    0.929352    0.621886    0.000000
   261  O     c     0.597202    0.057108    0.621886    0.000000
   262  O     c     0.406825    0.929352    0.621886    0.000000
   263  O     c     0.597202    0.929352    0.377162    0.000000
   264  O     c     0.406825    0.057108    0.377162    0.000000
   265  O     c     0.906825    0.429352    0.877162    0.000000
   266  O     c     0.097202    0.557108    0.877162    0.000000
   267  O     c     0.906825    0.557108    0.121886    0.000000
   268  O     c     0.097202    0.429352    0.121886    0.000000
   269  O     c     0.097202    0.557108    0.121886    0.000000
   270  O     c     0.906825    0.429352    0.121886    0.000000
   271  O     c     0.097202    0.429352    0.877162    0.000000
   272  O     c     0.906825    0.557108    0.877162    0.000000
   273  O     c     0.502013    0.993230    0.423858    0.000000
   274  O     c     0.502013    0.993230    0.575190    0.000000
   275  O     c     0.002013    0.493230    0.923858    0.000000
   276  O     c     0.002013    0.493230    0.075190    0.000000
   277  O     c     0.401043    0.993230    0.499524    0.000000
   278  O     c     0.602984    0.993230    0.499524    0.000000
   279  O     c     0.901043    0.493230    0.999524    0.000000
   280  O     c     0.102984    0.493230    0.999524    0.000000
   281  O     c     0.893037    0.610124    0.750009    0.000000
   282  O     c     0.110990    0.376336    0.750009    0.000000
   283  O     c     0.893037    0.376336    0.249039    0.000000
   284  O     c     0.110990    0.610124    0.249039    0.000000
   285  O     c     0.110990    0.376336    0.249039    0.000000
   286  O     c     0.893037    0.610124    0.249039    0.000000
   287  O     c     0.110990    0.610124    0.750009    0.000000
   288  O     c     0.893037    0.376336    0.750009    0.000000
   289  O     c     0.393037    0.110124    0.250009    0.000000
   290  O     c     0.610990    0.876336    0.250009    0.000000
   291  O     c     0.393037    0.876336    0.749039    0.000000
   292  O     c     0.610990    0.110124    0.749039    0.000000
   293  O     c     0.610990    0.876336    0.749039    0.000000
   294  O     c     0.393037    0.110124    0.749039    0.000000
   295  O     c     0.610990    0.110124    0.250009    0.000000
   296  O     c     0.393037    0.876336    0.250009    0.000000
   297  O     c     0.002013    0.607000    0.808474    0.000000
   298  O     c     0.002013    0.379460    0.808474    0.000000
   299  O     c     0.002013    0.379460    0.190573    0.000000
   300  O     c     0.002013    0.607000    0.190573    0.000000
   301  O     c     0.502013    0.107000    0.308474    0.000000
   302  O     c     0.502013    0.879460    0.308474    0.000000
   303  O     c     0.502013    0.879460    0.690573    0.000000
   304  O     c     0.502013    0.107000    0.690573    0.000000
   305  O     c     0.609197    0.993230    0.191538    0.000000
   306  O     c     0.394830    0.993230    0.191538    0.000000
   307  O     c     0.609197    0.993230    0.807510    0.000000
   308  O     c     0.394830    0.993230    0.807510    0.000000
   309  O     c     0.109197    0.493230    0.691538    0.000000
   310  O     c     0.894830    0.493230    0.691538    0.000000
   311  O     c     0.109197    0.493230    0.307510    0.000000
   312  O     c     0.894830    0.493230    0.307510    0.000000
   313  O     s     0.061169    0.588826    0.375567    0.000000
   314  O     s     0.942858    0.397634    0.375567    0.000000
   315  O     s     0.061169    0.397634    0.623481    0.000000
   316  O     s     0.942858    0.588826    0.623481    0.000000
   317  O     s     0.942858    0.397634    0.623481    0.000000
   318  O     s     0.061169    0.588826    0.623481    0.000000
   319  O     s     0.942858    0.588826    0.375567    0.000000
   320  O     s     0.061169    0.397634    0.375567    0.000000
   321  O     s     0.561169    0.088826    0.875567    0.000000
   322  O     s     0.442858    0.897634    0.875567    0.000000
   323  O     s     0.561169    0.897634    0.123481    0.000000
   324  O     s     0.442858    0.088826    0.123481    0.000000
   325  O     s     0.442858    0.897634    0.123481    0.000000
   326  O     s     0.561169    0.088826    0.123481    0.000000
   327  O     s     0.442858    0.088826    0.875567    0.000000
   328  O     s     0.561169    0.897634    0.875567    0.000000
   329  O     s     0.002013    0.493230    0.422730    0.000000
   330  O     s     0.002013    0.493230    0.576318    0.000000
   331  O     s     0.502013    0.993230    0.922730    0.000000
   332  O     s     0.502013    0.993230    0.076318    0.000000
   333  O     s     0.002013    0.594185    0.499524    0.000000
   334  O     s     0.002013    0.392275    0.499524    0.000000
   335  O     s     0.502013    0.094185    0.999524    0.000000
   336  O     s     0.502013    0.892275    0.999524    0.000000
   337  O     s     0.104423    0.929852    0.886680    0.000000
   338  O     s     0.899603    0.056608    0.886680    0.000000
   339  O     s     0.104423    0.056608    0.112368    0.000000
   340  O     s     0.899603    0.929852    0.112368    0.000000
   341  O     s     0.899603    0.056608    0.112368    0.000000
   342  O     s     0.104423    0.929852    0.112368    0.000000
   343  O     s     0.899603    0.929852    0.886680    0.000000
   344  O     s     0.104424    0.056608    0.886680    0.000000
   345  O     s     0.604424    0.429852    0.386680    0.000000
   346  O     s     0.399603    0.556608    0.386680    0.000000
   347  O     s     0.604424    0.556608    0.612368    0.000000
   348  O     s     0.399603    0.429852    0.612368    0.000000
   349  O     s     0.399603    0.556608    0.612368    0.000000
   350  O     s     0.604424    0.429852    0.612368    0.000000
   351  O     s     0.399603    0.429852    0.386680    0.000000
   352  O     s     0.604424    0.556608    0.386680    0.000000
   353  O     s     0.002013    0.993230    0.889984    0.000000
   354  O     s     0.002013    0.993230    0.109063    0.000000
   355  O     s     0.502013    0.493230    0.389985    0.000000
   356  O     s     0.502013    0.493230    0.609063    0.000000
   357  O     s     0.073042    0.993230    0.999524    0.000000
   358  O     s     0.930985    0.993230    0.999524    0.000000
   359  O     s     0.573042    0.493230    0.499524    0.000000
   360  O     s     0.430985    0.493230    0.499524    0.000000
   361  O     s     0.112173    0.802744    0.891005    0.000000
   362  O     s     0.891854    0.183716    0.891005    0.000000
   363  O     s     0.112173    0.183716    0.108043    0.000000
   364  O     s     0.891854    0.802744    0.108043    0.000000
   365  O     s     0.891854    0.183716    0.108043    0.000000
   366  O     s     0.112173    0.802744    0.108043    0.000000
   367  O     s     0.891854    0.802744    0.891005    0.000000
   368  O     s     0.112173    0.183716    0.891005    0.000000
   369  O     s     0.612173    0.302744    0.391005    0.000000
   370  O     s     0.391854    0.683716    0.391005    0.000000
   371  O     s     0.612173    0.683716    0.608043    0.000000
   372  O     s     0.391854    0.302744    0.608043    0.000000
   373  O     s     0.391854    0.683716    0.608043    0.000000
   374  O     s     0.612173    0.302744    0.608043    0.000000
   375  O     s     0.391854    0.302744    0.391005    0.000000
   376  O     s     0.612173    0.683716    0.391005    0.000000
   377  O     s     0.085359    0.680831    0.866296    0.000000
   378  O     s     0.918667    0.305629    0.866296    0.000000
   379  O     s     0.085359    0.305629    0.132751    0.000000
   380  O     s     0.918667    0.680831    0.132751    0.000000
   381  O     s     0.918667    0.305629    0.132751    0.000000
   382  O     s     0.085359    0.680831    0.132751    0.000000
   383  O     s     0.918667    0.680831    0.866296    0.000000
   384  O     s     0.085359    0.305629    0.866296    0.000000
   385  O     s     0.585360    0.180831    0.366296    0.000000
   386  O     s     0.418667    0.805629    0.366296    0.000000
   387  O     s     0.585360    0.805629    0.632751    0.000000
   388  O     s     0.418667    0.180831    0.632751    0.000000
   389  O     s     0.418667    0.805629    0.632751    0.000000
   390  O     s     0.585360    0.180831    0.632751    0.000000
   391  O     s     0.418667    0.180831    0.366296    0.000000
   392  O     s     0.585360    0.805629    0.366296    0.000000
   393  O     s     0.002013    0.757982    0.908635    0.000000
   394  O     s     0.002013    0.228478    0.908635    0.000000
   395  O     s     0.002013    0.228478    0.090413    0.000000
   396  O     s     0.002013    0.757982    0.090413    0.000000
   397  O     s     0.502013    0.257982    0.408635    0.000000
   398  O     s     0.502013    0.728478    0.408635    0.000000
   399  O     s     0.502013    0.728478    0.590413    0.000000
   400  O     s     0.502013    0.257982    0.590413    0.000000
   401  O     s     0.083993    0.729439    0.999524    0.000000
   402  O     s     0.920033    0.257021    0.999524    0.000000
   403  O     s     0.083993    0.257021    0.999524    0.000000
   404  O     s     0.920033    0.729439    0.999524    0.000000
   405  O     s     0.583993    0.229439    0.499524    0.000000
   406  O     s     0.420033    0.757021    0.499524    0.000000
   407  O     s     0.583993    0.757021    0.499524    0.000000
   408  O     s     0.420033    0.229439    0.499524    0.000000
   409  O     s     0.218278    0.405987    0.499524    0.000000
   410  O     s     0.785748    0.580473    0.499524    0.000000
   411  O     s     0.218278    0.580473    0.499524    0.000000
   412  O     s     0.785748    0.405987    0.499524    0.000000
   413  O     s     0.718278    0.905987    0.999524    0.000000
   414  O     s     0.285748    0.080473    0.999524    0.000000
   415  O     s     0.718278    0.080473    0.999524    0.000000
   416  O     s     0.285748    0.905987    0.999524    0.000000
   417  O     s     0.247623    0.493230    0.410485    0.000000
   418  O     s     0.756404    0.493230    0.410485    0.000000
   419  O     s     0.247623    0.493230    0.588563    0.000000
[...]
    268 O     c       0.000000      0.000000      0.000000      0.000000
    269 O     c       0.000000      0.000000      0.000000      0.000000
    270 O     c       0.000000      0.000000      0.000000      0.000000
    271 O     c       0.000000      0.000000      0.000000      0.000000
    272 O     c       0.000000      0.000000      0.000000      0.000000
    273 O     c       0.000000      0.000000      0.000000      0.000000
    274 O     c       0.000000      0.000000      0.000000      0.000000
    275 O     c       0.000000      0.000000      0.000000      0.000000
    276 O     c       0.000000      0.000000      0.000000      0.000000
    277 O     c       0.000000      0.000000      0.000000      0.000000
    278 O     c       0.000000      0.000000      0.000000      0.000000
    279 O     c       0.000000      0.000000      0.000000      0.000000
    280 O     c       0.000000      0.000000      0.000000      0.000000
    281 O     c       0.000000      0.000000      0.000000      0.000000
    282 O     c       0.000000      0.000000      0.000000      0.000000
    283 O     c       0.000000      0.000000      0.000000      0.000000
    284 O     c       0.000000      0.000000      0.000000      0.000000
    285 O     c       0.000000      0.000000      0.000000      0.000000
    286 O     c       0.000000      0.000000      0.000000      0.000000
    287 O     c       0.000000      0.000000      0.000000      0.000000
    288 O     c       0.000000      0.000000      0.000000      0.000000
    289 O     c       0.000000      0.000000      0.000000      0.000000
    290 O     c       0.000000      0.000000      0.000000      0.000000
    291 O     c       0.000000      0.000000      0.000000      0.000000
    292 O     c       0.000000      0.000000      0.000000      0.000000
    293 O     c       0.000000      0.000000      0.000000      0.000000
    294 O     c       0.000000      0.000000      0.000000      0.000000
    295 O     c       0.000000      0.000000      0.000000      0.000000
    296 O     c       0.000000      0.000000      0.000000      0.000000
    297 O     c       0.000000      0.000000      0.000000      0.000000
    298 O     c       0.000000      0.000000      0.000000      0.000000
    299 O     c       0.000000      0.000000      0.000000      0.000000
    300 O     c       0.000000      0.000000      0.000000      0.000000
    301 O     c       0.000000      0.000000      0.000000      0.000000
    302 O     c       0.000000      0.000000      0.000000      0.000000
    303 O     c       0.000000      0.000000      0.000000      0.000000
    304 O     c       0.000000      0.000000      0.000000      0.000000
    305 O     c       0.000000      0.000000      0.000000      0.000000
    306 O     c       0.000000      0.000000      0.000000      0.000000
    307 O     c       0.000000      0.000000      0.000000      0.000000
    308 O     c       0.000000      0.000000      0.000000      0.000000
    309 O     c       0.000000      0.000000      0.000000      0.000000
    310 O     c       0.000000      0.000000      0.000000      0.000000
    311 O     c       0.000000      0.000000      0.000000      0.000000
    312 O     c       0.000000      0.000000      0.000000      0.000000
    313 O     s       0.000212      0.001462      0.000222      0.000000
    314 O     s      -0.000212     -0.001462      0.000222      0.000000
    315 O     s       0.000212     -0.001462     -0.000222      0.000000
    316 O     s      -0.000212      0.001462     -0.000222      0.000000
    317 O     s      -0.000212     -0.001462     -0.000222      0.000000
    318 O     s       0.000212      0.001462     -0.000222      0.000000
    319 O     s      -0.000212      0.001462      0.000222      0.000000
    320 O     s       0.000212     -0.001462      0.000222      0.000000
    321 O     s       0.000212      0.001462      0.000222      0.000000
    322 O     s      -0.000212     -0.001462      0.000222      0.000000
    323 O     s       0.000212     -0.001462     -0.000222      0.000000
    324 O     s      -0.000212      0.001462     -0.000222      0.000000
    325 O     s      -0.000212     -0.001462     -0.000222      0.000000
    326 O     s       0.000212      0.001462     -0.000222      0.000000
    327 O     s      -0.000212      0.001462      0.000222      0.000000
    328 O     s       0.000212     -0.001462      0.000222      0.000000
    329 O     s      -0.000000      0.000000      0.000231      0.000000
    330 O     s       0.000000     -0.000000     -0.000231      0.000000
    331 O     s       0.000000     -0.000000      0.000231      0.000000
    332 O     s       0.000000     -0.000000     -0.000231      0.000000
    333 O     s      -0.000000      0.001614     -0.000000      0.000000
    334 O     s       0.000000     -0.001614     -0.000000      0.000000
    335 O     s       0.000000      0.001614      0.000000      0.000000
    336 O     s      -0.000000     -0.001614     -0.000000      0.000000
    337 O     s      -0.000167     -0.000054     -0.001398      0.000000
    338 O     s       0.000167      0.000054     -0.001398      0.000000
    339 O     s      -0.000167      0.000054      0.001398      0.000000
    340 O     s       0.000167     -0.000054      0.001398      0.000000
    341 O     s       0.000167      0.000054      0.001398      0.000000
    342 O     s      -0.000167     -0.000054      0.001398      0.000000
    343 O     s       0.000167     -0.000054     -0.001398      0.000000
    344 O     s      -0.000167      0.000054     -0.001398      0.000000
    345 O     s      -0.000167     -0.000054     -0.001398      0.000000
    346 O     s       0.000167      0.000054     -0.001398      0.000000
    347 O     s      -0.000167      0.000054      0.001398      0.000000
    348 O     s       0.000167     -0.000054      0.001398      0.000000
    349 O     s       0.000167      0.000054      0.001398      0.000000
    350 O     s      -0.000167     -0.000054      0.001398      0.000000
    351 O     s       0.000167     -0.000054     -0.001398      0.000000
    352 O     s      -0.000167      0.000054     -0.001398      0.000000
    353 O     s      -0.000000     -0.000000     -0.001395      0.000000
    354 O     s      -0.000000      0.000000      0.001395      0.000000
    355 O     s      -0.000000      0.000000     -0.001395      0.000000
    356 O     s      -0.000000     -0.000000      0.001395      0.000000
    357 O     s       0.000128      0.000000     -0.000000      0.000000
    358 O     s      -0.000128      0.000000      0.000000      0.000000
    359 O     s       0.000128      0.000000     -0.000000      0.000000
    360 O     s      -0.000128     -0.000000     -0.000000      0.000000
    361 O     s       0.000459     -0.000251     -0.001215      0.000000
    362 O     s      -0.000459      0.000251     -0.001215      0.000000
    363 O     s       0.000459      0.000251      0.001215      0.000000
    364 O     s      -0.000459     -0.000251      0.001215      0.000000
    365 O     s      -0.000459      0.000251      0.001215      0.000000
    366 O     s       0.000459     -0.000251      0.001215      0.000000
    367 O     s      -0.000459     -0.000251     -0.001215      0.000000
    368 O     s       0.000459      0.000251     -0.001215      0.000000
    369 O     s       0.000459     -0.000251     -0.001215      0.000000
    370 O     s      -0.000459      0.000251     -0.001215      0.000000
    371 O     s       0.000459      0.000251      0.001215      0.000000
    372 O     s      -0.000459     -0.000251      0.001215      0.000000
    373 O     s      -0.000459      0.000251      0.001215      0.000000
    374 O     s       0.000459     -0.000251      0.001215      0.000000
    375 O     s      -0.000459     -0.000251     -0.001215      0.000000
    376 O     s       0.000459      0.000251     -0.001215      0.000000
    377 O     s       0.001259      0.000219     -0.000350      0.000000
    378 O     s      -0.001259     -0.000219     -0.000350      0.000000
    379 O     s       0.001259     -0.000219      0.000350      0.000000
    380 O     s      -0.001259      0.000219      0.000350      0.000000
    381 O     s      -0.001259     -0.000219      0.000350      0.000000
    382 O     s       0.001259      0.000219      0.000350      0.000000
    383 O     s      -0.001259      0.000219     -0.000350      0.000000
    384 O     s       0.001259     -0.000219     -0.000350      0.000000
    385 O     s       0.001259      0.000219     -0.000350      0.000000
    386 O     s      -0.001259     -0.000219     -0.000350      0.000000
    387 O     s       0.001259     -0.000219      0.000350      0.000000
    388 O     s      -0.001259      0.000219      0.000350      0.000000
    389 O     s      -0.001259     -0.000219      0.000350      0.000000
    390 O     s       0.001259      0.000219      0.000350      0.000000
    391 O     s      -0.001259      0.000219     -0.000350      0.000000
    392 O     s       0.001259     -0.000219     -0.000350      0.000000
    393 O     s      -0.000000      0.000922     -0.000639      0.000000
    394 O     s       0.000000     -0.000922     -0.000639      0.000000
    395 O     s      -0.000000     -0.000922      0.000639      0.000000
    396 O     s       0.000000      0.000922      0.000639      0.000000
    397 O     s      -0.000000      0.000922     -0.000639      0.000000
    398 O     s       0.000000     -0.000922     -0.000639      0.000000
    399 O     s      -0.000000     -0.000922      0.000639      0.000000
    400 O     s       0.000000      0.000922      0.000639      0.000000
    401 O     s       0.001073     -0.000824      0.000000      0.000000
    402 O     s      -0.001073      0.000824     -0.000000      0.000000
    403 O     s       0.001073      0.000824     -0.000000      0.000000
    404 O     s      -0.001073     -0.000824     -0.000000      0.000000
    405 O     s       0.001073     -0.000824      0.000000      0.000000
    406 O     s      -0.001073      0.000824      0.000000      0.000000
    407 O     s       0.001073      0.000824     -0.000000      0.000000
    408 O     s      -0.001073     -0.000824      0.000000      0.000000
    409 O     s      -0.000994     -0.001059      0.000000      0.000000
    410 O     s       0.000994      0.001059      0.000000      0.000000
    411 O     s      -0.000994      0.001059     -0.000000      0.000000
    412 O     s       0.000994     -0.001059      0.000000      0.000000
    413 O     s      -0.000994     -0.001059     -0.000000      0.000000
    414 O     s       0.000994      0.001059      0.000000      0.000000
    415 O     s      -0.000994      0.001059     -0.000000      0.000000
    416 O     s       0.000994     -0.001059      0.000000      0.000000
    417 O     s       0.000871      0.000000     -0.000608      0.000000
    418 O     s      -0.000871      0.000000     -0.000608      0.000000
    419 O     s       0.000871      0.000000      0.000608      0.000000
    420 O     s      -0.000871     -0.000000      0.000608      0.000000
    421 O     s       0.000871     -0.000000     -0.000608      0.000000
    422 O     s      -0.000871     -0.000000     -0.000608      0.000000
    423 O     s       0.000871     -0.000000      0.000608      0.000000
    424 O     s      -0.000871     -0.000000      0.000608      0.000000
    425 O     s      -0.000374     -0.000943     -0.001030      0.000000
    426 O     s       0.000374      0.000943     -0.001029      0.000000
    427 O     s      -0.000374      0.000943      0.001030      0.000000
    428 O     s       0.000374     -0.000943      0.001030      0.000000
    429 O     s       0.000374      0.000943      0.001029      0.000000
    430 O     s      -0.000374     -0.000943      0.001029      0.000000
    431 O     s       0.000374     -0.000943     -0.001029      0.000000
    432 O     s      -0.000374      0.000943     -0.001030      0.000000
    433 O     s      -0.000374     -0.000943     -0.001029      0.000000
    434 O     s       0.000374      0.000943     -0.001030      0.000000
    435 O     s      -0.000374      0.000943      0.001030      0.000000
    436 O     s       0.000374     -0.000943      0.001029      0.000000
    437 O     s       0.000374      0.000943      0.001030      0.000000
    438 O     s      -0.000374     -0.000943      0.001030      0.000000
    439 O     s       0.000374     -0.000943     -0.001029      0.000000
    440 O     s      -0.000374      0.000943     -0.001030      0.000000
    441 O     s       0.000275     -0.001242     -0.000433      0.000000
    442 O     s      -0.000275      0.001242     -0.000433      0.000000
    443 O     s       0.000275      0.001242      0.000433      0.000000
    444 O     s      -0.000275     -0.001242      0.000433      0.000000
    445 O     s      -0.000275      0.001242      0.000433      0.000000
    446 O     s       0.000275     -0.001242      0.000433      0.000000
    447 O     s      -0.000275     -0.001242     -0.000433      0.000000
    448 O     s       0.000275      0.001242     -0.000433      0.000000
    449 O     s       0.000275     -0.001242     -0.000433      0.000000
    450 O     s      -0.000275      0.001242     -0.000433      0.000000
    451 O     s       0.000275      0.001242      0.000433      0.000000
    452 O     s      -0.000275     -0.001242      0.000433      0.000000
    453 O     s      -0.000275      0.001242      0.000433      0.000000
    454 O     s       0.000275     -0.001242      0.000433      0.000000
    455 O     s      -0.000275     -0.001242     -0.000433      0.000000
    456 O     s       0.000275      0.001242     -0.000433      0.000000
    457 O     s       0.000345     -0.000000      0.000000      0.000000
    458 O     s      -0.000345      0.000000     -0.000000      0.000000
    459 O     s       0.000345      0.000000      0.000000      0.000000
    460 O     s      -0.000345     -0.000000      0.000000      0.000000
    461 O     s       0.000345     -0.000000     -0.000000      0.000000
    462 O     s      -0.000345      0.000000     -0.000000      0.000000
    463 O     s       0.000345      0.000000     -0.000000      0.000000
    464 O     s      -0.000345     -0.000000     -0.000000      0.000000
    465 O     s      -0.001569     -0.000200      0.000212      0.000000
    466 O     s       0.001569      0.000200      0.000212      0.000000
    467 O     s      -0.001569      0.000200     -0.000212      0.000000
    468 O     s       0.001569     -0.000200     -0.000212      0.000000
    469 O     s       0.001569      0.000200     -0.000212      0.000000
    470 O     s      -0.001569     -0.000200     -0.000212      0.000000
    471 O     s       0.001569     -0.000200      0.000212      0.000000
    472 O     s      -0.001569      0.000200      0.000212      0.000000
    473 O     s      -0.001569     -0.000200      0.000212      0.000000
    474 O     s       0.001569      0.000200      0.000212      0.000000
    475 O     s      -0.001569      0.000200     -0.000212      0.000000
    476 O     s       0.001569     -0.000200     -0.000212      0.000000
    477 O     s       0.001569      0.000200     -0.000212      0.000000
    478 O     s      -0.001569     -0.000200     -0.000212      0.000000
    479 O     s       0.001569     -0.000200      0.000212      0.000000
    480 O     s      -0.001569      0.000200      0.000212      0.000000
    481 O     s      -0.000000     -0.000000      0.000212      0.000000
    482 O     s      -0.000000     -0.000000     -0.000212      0.000000
    483 O     s      -0.000000      0.000000      0.000212      0.000000
    484 O     s      -0.000000     -0.000000     -0.000212      0.000000
    485 O     s      -0.001731      0.000000      0.000000      0.000000
    486 O     s       0.001731      0.000000      0.000000      0.000000
    487 O     s      -0.001731      0.000000     -0.000000      0.000000
    488 O     s       0.001731     -0.000000     -0.000000      0.000000
    489 O     s      -0.001030      0.000982     -0.000011      0.000000
    490 O     s       0.001030     -0.000982     -0.000011      0.000000
    491 O     s      -0.001030     -0.000982      0.000011      0.000000
    492 O     s       0.001030      0.000982      0.000011      0.000000
    493 O     s       0.001030     -0.000982      0.000011      0.000000
    494 O     s      -0.001030      0.000982      0.000011      0.000000
    495 O     s       0.001030      0.000982     -0.000011      0.000000
    496 O     s      -0.001030     -0.000982     -0.000011      0.000000
    497 O     s      -0.001030      0.000982     -0.000011      0.000000
    498 O     s       0.001030     -0.000982     -0.000011      0.000000
    499 O     s      -0.001030     -0.000982      0.000011      0.000000
    500 O     s       0.001030      0.000982      0.000011      0.000000
    501 O     s       0.001030     -0.000982      0.000011      0.000000
    502 O     s      -0.001030      0.000982      0.000011      0.000000
    503 O     s       0.001030      0.000982     -0.000011      0.000000
    504 O     s      -0.001030     -0.000982     -0.000011      0.000000
    505 O     s      -0.000000     -0.000054     -0.000687      0.000000
    506 O     s      -0.000000      0.000054     -0.000687      0.000000
    507 O     s      -0.000000      0.000054      0.000687      0.000000
    508 O     s       0.000000     -0.000054      0.000687      0.000000
    509 O     s      -0.000000     -0.000054     -0.000687      0.000000
    510 O     s       0.000000      0.000054     -0.000687      0.000000
    511 O     s       0.000000      0.000054      0.000687      0.000000
    512 O     s      -0.000000     -0.000054      0.000687      0.000000
    513 O     s      -0.000038      0.000000      0.000681      0.000000
    514 O     s       0.000038     -0.000000      0.000681      0.000000
    515 O     s      -0.000038      0.000000     -0.000681      0.000000
    516 O     s       0.000038     -0.000000     -0.000681      0.000000
    517 O     s      -0.000038     -0.000000      0.000681      0.000000
    518 O     s       0.000038     -0.000000      0.000681      0.000000
    519 O     s      -0.000038      0.000000     -0.000681      0.000000
    520 O     s       0.000038     -0.000000     -0.000681      0.000000
--------------------------------------------------------------------------------
  Maximum abs         0.001731      0.001614      0.001398      0.000000
--------------------------------------------------------------------------------


  Time to end of optimisation =      29.3686 seconds


  Peak dynamic memory used =      13.23 MB 


  Timing analysis for GULP :

--------------------------------------------------------------------------------
  Task / Subroutine                                          Time (Seconds)
--------------------------------------------------------------------------------
  Calculation of reciprocal space energy and derivatives         10.4276
  Calculation of real space energy and derivatives               10.2193
  Calculation of three-body energy and derivatives                3.1911
  Calculation and manipulation of Hessian matrix                  5.3628
  Calculation of matrix inversion                                 0.0753
  Symmetry generation of equivalent positions                     0.0008
--------------------------------------------------------------------------------
  Total CPU time                                                 29.3687
--------------------------------------------------------------------------------


  Dump file written as ReferenceDataBase/8286937_111.grs
  CIF file written as ReferenceDataBase/8286937_111_opt.cif


  Job Finished at 00:42.21  6th February   2024                               

