********************************************************************************
*                       GENERAL UTILITY LATTICE PROGRAM                        *
*                                 Julian Gale                                  *
*                       Curtin Institute for Computation                       *
*                    School of Molecular and Life Sciences                     *
*                    Curtin University, Western Australia                      *
********************************************************************************
* Version = 6.1.2 * Last modified =   3rd November 2022                        *
********************************************************************************
*  optimise     - perform optimisation run                                     *
*  conv         - constant volume calculation                                  *
*  shell        - only shells and radii to be optimised                        *
*  nosymmetry   - turn off symmetry after initial structure generation         *
********************************************************************************

  Job Started  at 00:42.22  6th February   2024                               

  Number of CPUs =     1


  Total number of configurations input =      1

********************************************************************************
*  Input for Configuration =   1 : ReferenceDataBase/8312978_111               *
********************************************************************************

  Formula = Si112O224                                                   

  Number of irreducible atoms/shells =     560


  Total number atoms/shells =     560

  Dimensionality = 3               :  Bulk   



  Cartesian lattice vectors (Angstroms) :

       20.190100    0.000000    0.000000
        0.000000   20.190100    0.000000
        0.000000    0.000000   19.108700

  Cell parameters (Angstroms/Degrees):

  a =      20.1901    alpha =  90.0000
  b =      20.1901    beta  =  90.0000
  c =      19.1087    gamma =  90.0000

  Initial cell volume =        7789.473105 Angs**3

  Temperature of configuration =   0.00     K 

  Pressure of configuration =         0.000 GPa 

  Fractional coordinates of asymmetric unit :

--------------------------------------------------------------------------------
   No.  Atomic       x           y          z         Charge      Occupancy
        Label      (Frac)      (Frac)     (Frac)        (e)         (Frac)  
--------------------------------------------------------------------------------
      1 Si    c    0.831884    0.277653    0.350752     4.00000    1.000000    
      2 Si    c    0.823812    0.924388    0.919210     4.00000    1.000000    
      3 Si    c    0.371716    0.257889    0.425133     4.00000    1.000000    
      4 Si    c    0.221263    0.665737    0.216018     4.00000    1.000000    
      5 Si    c    0.285789    0.171324    0.078851     4.00000    1.000000    
      6 Si    c    0.816789    0.921652    0.420388     4.00000    1.000000    
      7 Si    c    0.315720    0.422758    0.713659     4.00000    1.000000    
      8 O     c    0.810785    0.337750    0.402172     0.86902    1.000000    
      9 O     c    0.836179    0.308165    0.272282     0.86902    1.000000    
     10 O     c    0.900868    0.245159    0.375415     0.86902    1.000000    
     11 O     c    0.752625    0.891568    0.903485     0.86902    1.000000    
     12 O     c    0.424831    0.284056    0.368884     0.86902    1.000000    
     13 O     c    0.189139    0.657659    0.138723     0.86902    1.000000    
     14 O     c    0.258170    0.598200    0.237740     0.86902    1.000000    
     15 O     c    0.776510    0.221617    0.354397     0.86902    1.000000    
     16 O     c    0.274729    0.723398    0.215137     0.86902    1.000000    
     17 O     c    0.883176    0.880256    0.886175     0.86902    1.000000    
     18 O     c    0.312665    0.309745    0.427806     0.86902    1.000000    
     19 O     c    0.231719    0.228800    0.075345     0.86902    1.000000    
     20 O     c    0.882098    0.879178    0.401467     0.86902    1.000000    
     21 O     c    0.381744    0.378825    0.720783     0.86902    1.000000    
     22 O     c    0.825808    0.997604    0.885425     0.86902    1.000000    
     23 O     c    0.831920    0.997604    0.401201     0.86902    1.000000    
     24 O     c    0.834148    0.928238    0.001798     0.86902    1.000000    
     25 O     c    0.319789    0.165094    0.001798     0.86902    1.000000    
     26 O     c    0.405243    0.250685    0.501798     0.86902    1.000000    
     27 O     c    0.798807    0.913101    0.501798     0.86902    1.000000    
     28 O     c    0.334018    0.497604    0.734166     0.86902    1.000000    
     29 Si    c    0.720474    0.828964    0.350752     4.00000    1.000000    
     30 Si    c    0.073739    0.820892    0.919210     4.00000    1.000000    
     31 Si    c    0.740238    0.368796    0.425133     4.00000    1.000000    
     32 Si    c    0.332390    0.218343    0.216018     4.00000    1.000000    
     33 Si    c    0.826803    0.282870    0.078851     4.00000    1.000000    
     34 Si    c    0.076475    0.813869    0.420388     4.00000    1.000000    
     35 Si    c    0.575369    0.312801    0.713659     4.00000    1.000000    
     36 O     c    0.660377    0.807866    0.402172     0.86902    1.000000    
     37 O     c    0.689961    0.833259    0.272282     0.86902    1.000000    
     38 O     c    0.752968    0.897948    0.375415     0.86902    1.000000    
     39 O     c    0.106558    0.749706    0.903485     0.86902    1.000000    
     40 O     c    0.714071    0.421911    0.368884     0.86902    1.000000    
     41 O     c    0.340468    0.186219    0.138723     0.86902    1.000000    
     42 O     c    0.399926    0.255250    0.237740     0.86902    1.000000    
     43 O     c    0.776510    0.773590    0.354397     0.86902    1.000000    
     44 O     c    0.274729    0.271809    0.215137     0.86902    1.000000    
     45 O     c    0.117871    0.880256    0.886175     0.86902    1.000000    
     46 O     c    0.688382    0.309745    0.427806     0.86902    1.000000    
     47 O     c    0.769327    0.228800    0.075345     0.86902    1.000000    
     48 O     c    0.118948    0.879178    0.401467     0.86902    1.000000    
     49 O     c    0.619302    0.378825    0.720783     0.86902    1.000000    
     50 O     c    0.000523    0.822888    0.885425     0.86902    1.000000    
     51 O     c    0.000523    0.829001    0.401201     0.86902    1.000000    
     52 O     c    0.069889    0.831228    0.001798     0.86902    1.000000    
     53 O     c    0.833033    0.316870    0.001798     0.86902    1.000000    
     54 O     c    0.747442    0.402323    0.501798     0.86902    1.000000    
     55 O     c    0.085026    0.795888    0.501798     0.86902    1.000000    
     56 O     c    0.500523    0.331098    0.734166     0.86902    1.000000    
     57 Si    c    0.169163    0.717554    0.350752     4.00000    1.000000    
     58 Si    c    0.177235    0.070819    0.919210     4.00000    1.000000    
     59 Si    c    0.629331    0.737318    0.425133     4.00000    1.000000    
     60 Si    c    0.779784    0.329470    0.216018     4.00000    1.000000    
     61 Si    c    0.715257    0.823883    0.078851     4.00000    1.000000    
     62 Si    c    0.184258    0.073556    0.420388     4.00000    1.000000    
     63 Si    c    0.685326    0.572449    0.713659     4.00000    1.000000    
     64 O     c    0.190261    0.657457    0.402172     0.86902    1.000000    
     65 O     c    0.164868    0.687042    0.272282     0.86902    1.000000    
     66 O     c    0.100179    0.750049    0.375415     0.86902    1.000000    
     67 O     c    0.248421    0.103639    0.903485     0.86902    1.000000    
     68 O     c    0.576216    0.711151    0.368884     0.86902    1.000000    
     69 O     c    0.811908    0.337549    0.138723     0.86902    1.000000    
     70 O     c    0.742877    0.397007    0.237740     0.86902    1.000000    
     71 O     c    0.224537    0.773590    0.354397     0.86902    1.000000    
     72 O     c    0.726318    0.271809    0.215137     0.86902    1.000000    
     73 O     c    0.117871    0.114951    0.886175     0.86902    1.000000    
     74 O     c    0.688382    0.685462    0.427806     0.86902    1.000000    
     75 O     c    0.769327    0.766408    0.075345     0.86902    1.000000    
     76 O     c    0.118948    0.116029    0.401467     0.86902    1.000000    
     77 O     c    0.619302    0.616382    0.720783     0.86902    1.000000    
     78 O     c    0.175239    0.997604    0.885425     0.86902    1.000000    
     79 O     c    0.169126    0.997604    0.401201     0.86902    1.000000    
     80 O     c    0.166899    0.066969    0.001798     0.86902    1.000000    
     81 O     c    0.681257    0.830113    0.001798     0.86902    1.000000    
     82 O     c    0.595803    0.744523    0.501798     0.86902    1.000000    
     83 O     c    0.202239    0.082106    0.501798     0.86902    1.000000    
     84 O     c    0.667029    0.497604    0.734166     0.86902    1.000000    
     85 Si    c    0.280573    0.166243    0.350752     4.00000    1.000000    
     86 Si    c    0.927308    0.174315    0.919210     4.00000    1.000000    
     87 Si    c    0.260808    0.626411    0.425133     4.00000    1.000000    
     88 Si    c    0.668657    0.776864    0.216018     4.00000    1.000000    
     89 Si    c    0.174244    0.712337    0.078851     4.00000    1.000000    
     90 Si    c    0.924571    0.181338    0.420388     4.00000    1.000000    
     91 Si    c    0.425678    0.682407    0.713659     4.00000    1.000000    
     92 O     c    0.340670    0.187342    0.402172     0.86902    1.000000    
     93 O     c    0.311085    0.161948    0.272282     0.86902    1.000000    
     94 O     c    0.248078    0.097259    0.375415     0.86902    1.000000    
     95 O     c    0.894488    0.245502    0.903485     0.86902    1.000000    
     96 O     c    0.286976    0.573296    0.368884     0.86902    1.000000    
     97 O     c    0.660578    0.808988    0.138723     0.86902    1.000000    
     98 O     c    0.601120    0.739957    0.237740     0.86902    1.000000    
     99 O     c    0.224537    0.221617    0.354397     0.86902    1.000000    
    100 O     c    0.726318    0.723398    0.215137     0.86902    1.000000    
    101 O     c    0.883176    0.114951    0.886175     0.86902    1.000000    
    102 O     c    0.312665    0.685462    0.427806     0.86902    1.000000    
    103 O     c    0.231719    0.766408    0.075345     0.86902    1.000000    
    104 O     c    0.882098    0.116029    0.401467     0.86902    1.000000    
    105 O     c    0.381744    0.616382    0.720783     0.86902    1.000000    
    106 O     c    0.000523    0.172319    0.885425     0.86902    1.000000    
    107 O     c    0.000523    0.166207    0.401201     0.86902    1.000000    
    108 O     c    0.931158    0.163979    0.001798     0.86902    1.000000    
    109 O     c    0.168014    0.678338    0.001798     0.86902    1.000000    
    110 O     c    0.253604    0.592884    0.501798     0.86902    1.000000    
    111 O     c    0.916021    0.199320    0.501798     0.86902    1.000000    
    112 O     c    0.500523    0.664109    0.734166     0.86902    1.000000    
    113 Si    c    0.831884    0.717554    0.652844     4.00000    1.000000    
    114 Si    c    0.823812    0.070819    0.084387     4.00000    1.000000    
    115 Si    c    0.371716    0.737318    0.578464     4.00000    1.000000    
    116 Si    c    0.221263    0.329470    0.787578     4.00000    1.000000    
    117 Si    c    0.285789    0.823883    0.924746     4.00000    1.000000    
    118 Si    c    0.816789    0.073556    0.583209     4.00000    1.000000    
    119 Si    c    0.315720    0.572449    0.289938     4.00000    1.000000    
    120 O     c    0.810785    0.657457    0.601424     0.86902    1.000000    
    121 O     c    0.836179    0.687042    0.731314     0.86902    1.000000    
    122 O     c    0.900868    0.750049    0.628182     0.86902    1.000000    
    123 O     c    0.752625    0.103639    0.100112     0.86902    1.000000    
    124 O     c    0.424831    0.711151    0.634712     0.86902    1.000000    
    125 O     c    0.189139    0.337549    0.864874     0.86902    1.000000    
    126 O     c    0.258170    0.397007    0.765857     0.86902    1.000000    
    127 O     c    0.776510    0.773590    0.649199     0.86902    1.000000    
    128 O     c    0.274729    0.271809    0.788460     0.86902    1.000000    
    129 O     c    0.883176    0.114951    0.117421     0.86902    1.000000    
    130 O     c    0.312665    0.685462    0.575790     0.86902    1.000000    
    131 O     c    0.231719    0.766408    0.928252     0.86902    1.000000    
    132 O     c    0.882098    0.116029    0.602130     0.86902    1.000000    
    133 O     c    0.381744    0.616382    0.282814     0.86902    1.000000    
    134 O     c    0.825808    0.997604    0.118171     0.86902    1.000000    
    135 O     c    0.831920    0.997604    0.602396     0.86902    1.000000    
    136 O     c    0.834148    0.066969    0.001798     0.86902    1.000000    
    137 O     c    0.319789    0.830113    0.001798     0.86902    1.000000    
    138 O     c    0.405243    0.744523    0.501798     0.86902    1.000000    
    139 O     c    0.798807    0.082106    0.501798     0.86902    1.000000    
    140 O     c    0.334018    0.497604    0.269431     0.86902    1.000000    
    141 Si    c    0.280573    0.828964    0.652844     4.00000    1.000000    
    142 Si    c    0.927308    0.820892    0.084387     4.00000    1.000000    
    143 Si    c    0.260808    0.368796    0.578464     4.00000    1.000000    
    144 Si    c    0.668657    0.218343    0.787578     4.00000    1.000000    
    145 Si    c    0.174244    0.282870    0.924746     4.00000    1.000000    
    146 Si    c    0.924571    0.813869    0.583209     4.00000    1.000000    
    147 Si    c    0.425678    0.312801    0.289938     4.00000    1.000000    
    148 O     c    0.340670    0.807866    0.601424     0.86902    1.000000    
    149 O     c    0.311085    0.833259    0.731314     0.86902    1.000000    
    150 O     c    0.248078    0.897948    0.628182     0.86902    1.000000    
    151 O     c    0.894488    0.749706    0.100112     0.86902    1.000000    
    152 O     c    0.286976    0.421911    0.634712     0.86902    1.000000    
    153 O     c    0.660578    0.186219    0.864874     0.86902    1.000000    
    154 O     c    0.601120    0.255250    0.765857     0.86902    1.000000    
    155 O     c    0.224537    0.773590    0.649199     0.86902    1.000000    
    156 O     c    0.726318    0.271809    0.788460     0.86902    1.000000    
    157 O     c    0.883176    0.880256    0.117421     0.86902    1.000000    
    158 O     c    0.312665    0.309745    0.575790     0.86902    1.000000    
    159 O     c    0.231719    0.228800    0.928252     0.86902    1.000000    
    160 O     c    0.882098    0.879178    0.602130     0.86902    1.000000    
    161 O     c    0.381744    0.378825    0.282814     0.86902    1.000000    
    162 O     c    0.000523    0.822888    0.118171     0.86902    1.000000    
    163 O     c    0.000523    0.829001    0.602396     0.86902    1.000000    
    164 O     c    0.931158    0.831228    0.001798     0.86902    1.000000    
    165 O     c    0.168014    0.316870    0.001798     0.86902    1.000000    
    166 O     c    0.253604    0.402323    0.501798     0.86902    1.000000    
    167 O     c    0.916021    0.795888    0.501798     0.86902    1.000000    
    168 O     c    0.500523    0.331098    0.269431     0.86902    1.000000    
    169 Si    c    0.169163    0.277653    0.652844     4.00000    1.000000    
    170 Si    c    0.177235    0.924388    0.084387     4.00000    1.000000    
    171 Si    c    0.629331    0.257889    0.578464     4.00000    1.000000    
    172 Si    c    0.779784    0.665737    0.787578     4.00000    1.000000    
    173 Si    c    0.715257    0.171324    0.924746     4.00000    1.000000    
    174 Si    c    0.184258    0.921652    0.583209     4.00000    1.000000    
    175 Si    c    0.685326    0.422758    0.289938     4.00000    1.000000    
    176 O     c    0.190261    0.337750    0.601424     0.86902    1.000000    
    177 O     c    0.164868    0.308165    0.731314     0.86902    1.000000    
    178 O     c    0.100179    0.245159    0.628182     0.86902    1.000000    
    179 O     c    0.248421    0.891568    0.100112     0.86902    1.000000    
    180 O     c    0.576216    0.284056    0.634712     0.86902    1.000000    
    181 O     c    0.811908    0.657659    0.864874     0.86902    1.000000    
    182 O     c    0.742877    0.598200    0.765857     0.86902    1.000000    
    183 O     c    0.224537    0.221617    0.649199     0.86902    1.000000    
    184 O     c    0.726318    0.723398    0.788460     0.86902    1.000000    
    185 O     c    0.117871    0.880256    0.117421     0.86902    1.000000    
    186 O     c    0.688382    0.309745    0.575790     0.86902    1.000000    
    187 O     c    0.769327    0.228800    0.928252     0.86902    1.000000    
    188 O     c    0.118948    0.879178    0.602130     0.86902    1.000000    
    189 O     c    0.619302    0.378825    0.282814     0.86902    1.000000    
    190 O     c    0.175239    0.997604    0.118171     0.86902    1.000000    
    191 O     c    0.169126    0.997604    0.602396     0.86902    1.000000    
    192 O     c    0.166899    0.928238    0.001798     0.86902    1.000000    
    193 O     c    0.681257    0.165094    0.001798     0.86902    1.000000    
    194 O     c    0.595804    0.250685    0.501798     0.86902    1.000000    
    195 O     c    0.202239    0.913101    0.501798     0.86902    1.000000    
    196 O     c    0.667029    0.497604    0.269431     0.86902    1.000000    
    197 Si    c    0.720474    0.166243    0.652844     4.00000    1.000000    
    198 Si    c    0.073739    0.174315    0.084387     4.00000    1.000000    
    199 Si    c    0.740238    0.626411    0.578464     4.00000    1.000000    
    200 Si    c    0.332390    0.776864    0.787578     4.00000    1.000000    
    201 Si    c    0.826803    0.712337    0.924746     4.00000    1.000000    
    202 Si    c    0.076475    0.181338    0.583209     4.00000    1.000000    
    203 Si    c    0.575369    0.682407    0.289938     4.00000    1.000000    
    204 O     c    0.660377    0.187342    0.601424     0.86902    1.000000    
    205 O     c    0.689961    0.161948    0.731314     0.86902    1.000000    
    206 O     c    0.752968    0.097259    0.628182     0.86902    1.000000    
    207 O     c    0.106558    0.245502    0.100112     0.86902    1.000000    
    208 O     c    0.714071    0.573296    0.634712     0.86902    1.000000    
    209 O     c    0.340468    0.808988    0.864874     0.86902    1.000000    
    210 O     c    0.399926    0.739957    0.765857     0.86902    1.000000    
    211 O     c    0.776510    0.221617    0.649199     0.86902    1.000000    
    212 O     c    0.274729    0.723398    0.788460     0.86902    1.000000    
    213 O     c    0.117871    0.114951    0.117421     0.86902    1.000000    
    214 O     c    0.688382    0.685462    0.575790     0.86902    1.000000    
    215 O     c    0.769327    0.766408    0.928252     0.86902    1.000000    
    216 O     c    0.118948    0.116029    0.602130     0.86902    1.000000    
    217 O     c    0.619302    0.616382    0.282814     0.86902    1.000000    
    218 O     c    0.000523    0.172319    0.118171     0.86902    1.000000    
    219 O     c    0.000523    0.166207    0.602396     0.86902    1.000000    
    220 O     c    0.069889    0.163979    0.001798     0.86902    1.000000    
    221 O     c    0.833033    0.678338    0.001798     0.86902    1.000000    
    222 O     c    0.747442    0.592884    0.501798     0.86902    1.000000    
    223 O     c    0.085026    0.199320    0.501798     0.86902    1.000000    
    224 O     c    0.500523    0.664109    0.269431     0.86902    1.000000    
    225 Si    c    0.169163    0.717554    0.652844     4.00000    1.000000    
    226 Si    c    0.177235    0.070819    0.084387     4.00000    1.000000    
    227 Si    c    0.629331    0.737318    0.578464     4.00000    1.000000    
    228 Si    c    0.779784    0.329470    0.787578     4.00000    1.000000    
    229 Si    c    0.715257    0.823883    0.924746     4.00000    1.000000    
    230 Si    c    0.184258    0.073556    0.583209     4.00000    1.000000    
    231 Si    c    0.685326    0.572449    0.289938     4.00000    1.000000    
    232 O     c    0.190261    0.657457    0.601424     0.86902    1.000000    
    233 O     c    0.164868    0.687042    0.731314     0.86902    1.000000    
    234 O     c    0.100179    0.750049    0.628182     0.86902    1.000000    
    235 O     c    0.248421    0.103639    0.100112     0.86902    1.000000    
    236 O     c    0.576216    0.711151    0.634712     0.86902    1.000000    
    237 O     c    0.811908    0.337549    0.864874     0.86902    1.000000    
    238 O     c    0.742877    0.397007    0.765857     0.86902    1.000000    
    239 Si    c    0.280573    0.166243    0.652844     4.00000    1.000000    
    240 Si    c    0.927308    0.174315    0.084387     4.00000    1.000000    
    241 Si    c    0.260808    0.626411    0.578464     4.00000    1.000000    
    242 Si    c    0.668657    0.776864    0.787578     4.00000    1.000000    
    243 Si    c    0.174244    0.712337    0.924746     4.00000    1.000000    
    244 Si    c    0.924571    0.181338    0.583209     4.00000    1.000000    
    245 Si    c    0.425678    0.682407    0.289938     4.00000    1.000000    
    246 O     c    0.340670    0.187342    0.601424     0.86902    1.000000    
    247 O     c    0.311085    0.161948    0.731314     0.86902    1.000000    
    248 O     c    0.248078    0.097259    0.628182     0.86902    1.000000    
    249 O     c    0.894488    0.245502    0.100112     0.86902    1.000000    
    250 O     c    0.286976    0.573296    0.634712     0.86902    1.000000    
    251 O     c    0.660578    0.808988    0.864874     0.86902    1.000000    
    252 O     c    0.601120    0.739957    0.765857     0.86902    1.000000    
    253 Si    c    0.831884    0.277653    0.652844     4.00000    1.000000    
    254 Si    c    0.823812    0.924388    0.084387     4.00000    1.000000    
    255 Si    c    0.371716    0.257889    0.578464     4.00000    1.000000    
    256 Si    c    0.221263    0.665737    0.787578     4.00000    1.000000    
    257 Si    c    0.285789    0.171324    0.924746     4.00000    1.000000    
    258 Si    c    0.816789    0.921652    0.583209     4.00000    1.000000    
    259 Si    c    0.315720    0.422758    0.289938     4.00000    1.000000    
    260 O     c    0.810785    0.337750    0.601424     0.86902    1.000000    
    261 O     c    0.836179    0.308165    0.731314     0.86902    1.000000    
    262 O     c    0.900868    0.245159    0.628182     0.86902    1.000000    
    263 O     c    0.752625    0.891568    0.100112     0.86902    1.000000    
    264 O     c    0.424831    0.284056    0.634712     0.86902    1.000000    
    265 O     c    0.189139    0.657659    0.864874     0.86902    1.000000    
    266 O     c    0.258170    0.598200    0.765857     0.86902    1.000000    
    267 Si    c    0.720474    0.828964    0.652844     4.00000    1.000000    
    268 Si    c    0.073739    0.820892    0.084387     4.00000    1.000000    
    269 Si    c    0.740238    0.368796    0.578464     4.00000    1.000000    
    270 Si    c    0.332390    0.218343    0.787578     4.00000    1.000000    
    271 Si    c    0.826803    0.282870    0.924746     4.00000    1.000000    
    272 Si    c    0.076475    0.813869    0.583209     4.00000    1.000000    
    273 Si    c    0.575369    0.312801    0.289938     4.00000    1.000000    
    274 O     c    0.660377    0.807866    0.601424     0.86902    1.000000    
    275 O     c    0.689961    0.833259    0.731314     0.86902    1.000000    
    276 O     c    0.752968    0.897948    0.628182     0.86902    1.000000    
    277 O     c    0.106558    0.749706    0.100112     0.86902    1.000000    
    278 O     c    0.714071    0.421911    0.634712     0.86902    1.000000    
    279 O     c    0.340468    0.186219    0.864874     0.86902    1.000000    
    280 O     c    0.399926    0.255250    0.765857     0.86902    1.000000    
    281 Si    c    0.169163    0.277653    0.350752     4.00000    1.000000    
    282 Si    c    0.177235    0.924388    0.919210     4.00000    1.000000    
    283 Si    c    0.629331    0.257889    0.425133     4.00000    1.000000    
    284 Si    c    0.779784    0.665737    0.216018     4.00000    1.000000    
    285 Si    c    0.715257    0.171324    0.078851     4.00000    1.000000    
    286 Si    c    0.184258    0.921652    0.420388     4.00000    1.000000    
    287 Si    c    0.685326    0.422758    0.713659     4.00000    1.000000    
    288 O     c    0.190261    0.337750    0.402172     0.86902    1.000000    
    289 O     c    0.164868    0.308165    0.272282     0.86902    1.000000    
    290 O     c    0.100179    0.245159    0.375415     0.86902    1.000000    
    291 O     c    0.248421    0.891568    0.903485     0.86902    1.000000    
    292 O     c    0.576216    0.284056    0.368884     0.86902    1.000000    
    293 O     c    0.811908    0.657659    0.138723     0.86902    1.000000    
    294 O     c    0.742877    0.598200    0.237740     0.86902    1.000000    
    295 Si    c    0.720474    0.166243    0.350752     4.00000    1.000000    
    296 Si    c    0.073739    0.174315    0.919210     4.00000    1.000000    
    297 Si    c    0.740238    0.626411    0.425133     4.00000    1.000000    
    298 Si    c    0.332390    0.776864    0.216018     4.00000    1.000000    
    299 Si    c    0.826803    0.712337    0.078851     4.00000    1.000000    
    300 Si    c    0.076475    0.181338    0.420388     4.00000    1.000000    
    301 Si    c    0.575369    0.682407    0.713659     4.00000    1.000000    
    302 O     c    0.660377    0.187342    0.402172     0.86902    1.000000    
    303 O     c    0.689961    0.161948    0.272282     0.86902    1.000000    
    304 O     c    0.752968    0.097259    0.375415     0.86902    1.000000    
    305 O     c    0.106558    0.245502    0.903485     0.86902    1.000000    
    306 O     c    0.714071    0.573296    0.368884     0.86902    1.000000    
    307 O     c    0.340468    0.808988    0.138723     0.86902    1.000000    
    308 O     c    0.399926    0.739957    0.237740     0.86902    1.000000    
    309 Si    c    0.831884    0.717554    0.350752     4.00000    1.000000    
    310 Si    c    0.823812    0.070819    0.919210     4.00000    1.000000    
    311 Si    c    0.371716    0.737318    0.425133     4.00000    1.000000    
    312 Si    c    0.221263    0.329470    0.216018     4.00000    1.000000    
    313 Si    c    0.285789    0.823883    0.078851     4.00000    1.000000    
    314 Si    c    0.816789    0.073556    0.420388     4.00000    1.000000    
    315 Si    c    0.315720    0.572449    0.713659     4.00000    1.000000    
    316 O     c    0.810785    0.657457    0.402172     0.86902    1.000000    
    317 O     c    0.836179    0.687042    0.272282     0.86902    1.000000    
    318 O     c    0.900868    0.750049    0.375415     0.86902    1.000000    
    319 O     c    0.752625    0.103639    0.903485     0.86902    1.000000    
    320 O     c    0.424831    0.711151    0.368884     0.86902    1.000000    
    321 O     c    0.189139    0.337549    0.138723     0.86902    1.000000    
    322 O     c    0.258170    0.397007    0.237740     0.86902    1.000000    
    323 Si    c    0.280573    0.828964    0.350752     4.00000    1.000000    
    324 Si    c    0.927308    0.820892    0.919210     4.00000    1.000000    
    325 Si    c    0.260808    0.368796    0.425133     4.00000    1.000000    
    326 Si    c    0.668657    0.218343    0.216018     4.00000    1.000000    
    327 Si    c    0.174244    0.282870    0.078851     4.00000    1.000000    
    328 Si    c    0.924571    0.813869    0.420388     4.00000    1.000000    
    329 Si    c    0.425678    0.312801    0.713659     4.00000    1.000000    
    330 O     c    0.340670    0.807866    0.402172     0.86902    1.000000    
    331 O     c    0.311085    0.833259    0.272282     0.86902    1.000000    
    332 O     c    0.248078    0.897948    0.375415     0.86902    1.000000    
    333 O     c    0.894488    0.749706    0.903485     0.86902    1.000000    
    334 O     c    0.286976    0.421911    0.368884     0.86902    1.000000    
    335 O     c    0.660578    0.186219    0.138723     0.86902    1.000000    
    336 O     c    0.601120    0.255250    0.237740     0.86902    1.000000    
    337 O     s    0.810785 *  0.337750 *  0.402172 *  -2.86902    1.000000    
    338 O     s    0.836179 *  0.308165 *  0.272282 *  -2.86902    1.000000    
    339 O     s    0.900868 *  0.245159 *  0.375415 *  -2.86902    1.000000    
    340 O     s    0.752625 *  0.891568 *  0.903485 *  -2.86902    1.000000    
    341 O     s    0.424831 *  0.284056 *  0.368884 *  -2.86902    1.000000    
    342 O     s    0.189139 *  0.657659 *  0.138723 *  -2.86902    1.000000    
    343 O     s    0.258170 *  0.598200 *  0.237740 *  -2.86902    1.000000    
    344 O     s    0.776510 *  0.221617 *  0.354397 *  -2.86902    1.000000    
    345 O     s    0.274729 *  0.723398 *  0.215137 *  -2.86902    1.000000    
    346 O     s    0.883176 *  0.880256 *  0.886175 *  -2.86902    1.000000    
    347 O     s    0.312665 *  0.309745 *  0.427806 *  -2.86902    1.000000    
    348 O     s    0.231719 *  0.228800 *  0.075345 *  -2.86902    1.000000    
    349 O     s    0.882098 *  0.879178 *  0.401467 *  -2.86902    1.000000    
    350 O     s    0.381744 *  0.378825 *  0.720783 *  -2.86902    1.000000    
    351 O     s    0.825808 *  0.997604 *  0.885425 *  -2.86902    1.000000    
    352 O     s    0.831920 *  0.997604 *  0.401201 *  -2.86902    1.000000    
    353 O     s    0.834148 *  0.928238 *  0.001798 *  -2.86902    1.000000    
    354 O     s    0.319789 *  0.165094 *  0.001798 *  -2.86902    1.000000    
    355 O     s    0.405243 *  0.250685 *  0.501798 *  -2.86902    1.000000    
    356 O     s    0.798807 *  0.913101 *  0.501798 *  -2.86902    1.000000    
    357 O     s    0.334018 *  0.497604 *  0.734166 *  -2.86902    1.000000    
    358 O     s    0.660377 *  0.807866 *  0.402172 *  -2.86902    1.000000    
    359 O     s    0.689961 *  0.833259 *  0.272282 *  -2.86902    1.000000    
    360 O     s    0.752968 *  0.897948 *  0.375415 *  -2.86902    1.000000    
    361 O     s    0.106558 *  0.749706 *  0.903485 *  -2.86902    1.000000    
    362 O     s    0.714071 *  0.421911 *  0.368884 *  -2.86902    1.000000    
    363 O     s    0.340468 *  0.186219 *  0.138723 *  -2.86902    1.000000    
    364 O     s    0.399926 *  0.255250 *  0.237740 *  -2.86902    1.000000    
    365 O     s    0.776510 *  0.773590 *  0.354397 *  -2.86902    1.000000    
    366 O     s    0.274729 *  0.271809 *  0.215137 *  -2.86902    1.000000    
    367 O     s    0.117871 *  0.880256 *  0.886175 *  -2.86902    1.000000    
    368 O     s    0.688382 *  0.309745 *  0.427806 *  -2.86902    1.000000    
    369 O     s    0.769327 *  0.228800 *  0.075345 *  -2.86902    1.000000    
    370 O     s    0.118948 *  0.879178 *  0.401467 *  -2.86902    1.000000    
    371 O     s    0.619302 *  0.378825 *  0.720783 *  -2.86902    1.000000    
    372 O     s    0.000523 *  0.822888 *  0.885425 *  -2.86902    1.000000    
    373 O     s    0.000523 *  0.829001 *  0.401201 *  -2.86902    1.000000    
    374 O     s    0.069889 *  0.831228 *  0.001798 *  -2.86902    1.000000    
    375 O     s    0.833033 *  0.316870 *  0.001798 *  -2.86902    1.000000    
    376 O     s    0.747442 *  0.402323 *  0.501798 *  -2.86902    1.000000    
    377 O     s    0.085026 *  0.795888 *  0.501798 *  -2.86902    1.000000    
    378 O     s    0.500523 *  0.331098 *  0.734166 *  -2.86902    1.000000    
    379 O     s    0.190261 *  0.657457 *  0.402172 *  -2.86902    1.000000    
    380 O     s    0.164868 *  0.687042 *  0.272282 *  -2.86902    1.000000    
    381 O     s    0.100179 *  0.750049 *  0.375415 *  -2.86902    1.000000    
    382 O     s    0.248421 *  0.103639 *  0.903485 *  -2.86902    1.000000    
    383 O     s    0.576216 *  0.711151 *  0.368884 *  -2.86902    1.000000    
    384 O     s    0.811908 *  0.337549 *  0.138723 *  -2.86902    1.000000    
    385 O     s    0.742877 *  0.397007 *  0.237740 *  -2.86902    1.000000    
    386 O     s    0.224537 *  0.773590 *  0.354397 *  -2.86902    1.000000    
    387 O     s    0.726318 *  0.271809 *  0.215137 *  -2.86902    1.000000    
    388 O     s    0.117871 *  0.114951 *  0.886175 *  -2.86902    1.000000    
    389 O     s    0.688382 *  0.685462 *  0.427806 *  -2.86902    1.000000    
    390 O     s    0.769327 *  0.766408 *  0.075345 *  -2.86902    1.000000    
    391 O     s    0.118948 *  0.116029 *  0.401467 *  -2.86902    1.000000    
    392 O     s    0.619302 *  0.616382 *  0.720783 *  -2.86902    1.000000    
    393 O     s    0.175239 *  0.997604 *  0.885425 *  -2.86902    1.000000    
    394 O     s    0.169126 *  0.997604 *  0.401201 *  -2.86902    1.000000    
    395 O     s    0.166899 *  0.066969 *  0.001798 *  -2.86902    1.000000    
    396 O     s    0.681257 *  0.830113 *  0.001798 *  -2.86902    1.000000    
    397 O     s    0.595803 *  0.744523 *  0.501798 *  -2.86902    1.000000    
    398 O     s    0.202239 *  0.082106 *  0.501798 *  -2.86902    1.000000    
    399 O     s    0.667029 *  0.497604 *  0.734166 *  -2.86902    1.000000    
    400 O     s    0.340670 *  0.187342 *  0.402172 *  -2.86902    1.000000    
    401 O     s    0.311085 *  0.161948 *  0.272282 *  -2.86902    1.000000    
    402 O     s    0.248078 *  0.097259 *  0.375415 *  -2.86902    1.000000    
    403 O     s    0.894488 *  0.245502 *  0.903485 *  -2.86902    1.000000    
    404 O     s    0.286976 *  0.573296 *  0.368884 *  -2.86902    1.000000    
    405 O     s    0.660578 *  0.808988 *  0.138723 *  -2.86902    1.000000    
    406 O     s    0.601120 *  0.739957 *  0.237740 *  -2.86902    1.000000    
    407 O     s    0.224537 *  0.221617 *  0.354397 *  -2.86902    1.000000    
    408 O     s    0.726318 *  0.723398 *  0.215137 *  -2.86902    1.000000    
    409 O     s    0.883176 *  0.114951 *  0.886175 *  -2.86902    1.000000    
    410 O     s    0.312665 *  0.685462 *  0.427806 *  -2.86902    1.000000    
    411 O     s    0.231719 *  0.766408 *  0.075345 *  -2.86902    1.000000    
    412 O     s    0.882098 *  0.116029 *  0.401467 *  -2.86902    1.000000    
    413 O     s    0.381744 *  0.616382 *  0.720783 *  -2.86902    1.000000    
    414 O     s    0.000523 *  0.172319 *  0.885425 *  -2.86902    1.000000    
    415 O     s    0.000523 *  0.166207 *  0.401201 *  -2.86902    1.000000    
    416 O     s    0.931158 *  0.163979 *  0.001798 *  -2.86902    1.000000    
    417 O     s    0.168014 *  0.678338 *  0.001798 *  -2.86902    1.000000    
    418 O     s    0.253604 *  0.592884 *  0.501798 *  -2.86902    1.000000    
    419 O     s    0.916021 *  0.199320 *  0.501798 *  -2.86902    1.000000    
    420 O     s    0.500523 *  0.664109 *  0.734166 *  -2.86902    1.000000    
    421 O     s    0.810785 *  0.657457 *  0.601424 *  -2.86902    1.000000    
    422 O     s    0.836179 *  0.687042 *  0.731314 *  -2.86902    1.000000    
    423 O     s    0.900868 *  0.750049 *  0.628182 *  -2.86902    1.000000    
    424 O     s    0.752625 *  0.103639 *  0.100112 *  -2.86902    1.000000    
    425 O     s    0.424831 *  0.711151 *  0.634712 *  -2.86902    1.000000    
    426 O     s    0.189139 *  0.337549 *  0.864874 *  -2.86902    1.000000    
    427 O     s    0.258170 *  0.397007 *  0.765857 *  -2.86902    1.000000    
    428 O     s    0.776510 *  0.773590 *  0.649199 *  -2.86902    1.000000    
    429 O     s    0.274729 *  0.271809 *  0.788460 *  -2.86902    1.000000    
    430 O     s    0.883176 *  0.114951 *  0.117421 *  -2.86902    1.000000    
    431 O     s    0.312665 *  0.685462 *  0.575790 *  -2.86902    1.000000    
    432 O     s    0.231719 *  0.766408 *  0.928252 *  -2.86902    1.000000    
    433 O     s    0.882098 *  0.116029 *  0.602130 *  -2.86902    1.000000    
    434 O     s    0.381744 *  0.616382 *  0.282814 *  -2.86902    1.000000    
    435 O     s    0.825808 *  0.997604 *  0.118171 *  -2.86902    1.000000    
    436 O     s    0.831920 *  0.997604 *  0.602396 *  -2.86902    1.000000    
    437 O     s    0.834148 *  0.066969 *  0.001798 *  -2.86902    1.000000    
    438 O     s    0.319789 *  0.830113 *  0.001798 *  -2.86902    1.000000    
    439 O     s    0.405243 *  0.744523 *  0.501798 *  -2.86902    1.000000    
    440 O     s    0.798807 *  0.082106 *  0.501798 *  -2.86902    1.000000    
    441 O     s    0.334018 *  0.497604 *  0.269431 *  -2.86902    1.000000    
    442 O     s    0.340670 *  0.807866 *  0.601424 *  -2.86902    1.000000    
    443 O     s    0.311085 *  0.833259 *  0.731314 *  -2.86902    1.000000    
    444 O     s    0.248078 *  0.897948 *  0.628182 *  -2.86902    1.000000    
    445 O     s    0.894488 *  0.749706 *  0.100112 *  -2.86902    1.000000    
    446 O     s    0.286976 *  0.421911 *  0.634712 *  -2.86902    1.000000    
    447 O     s    0.660578 *  0.186219 *  0.864874 *  -2.86902    1.000000    
    448 O     s    0.601120 *  0.255250 *  0.765857 *  -2.86902    1.000000    
    449 O     s    0.224537 *  0.773590 *  0.649199 *  -2.86902    1.000000    
    450 O     s    0.726318 *  0.271809 *  0.788460 *  -2.86902    1.000000    
    451 O     s    0.883176 *  0.880256 *  0.117421 *  -2.86902    1.000000    
    452 O     s    0.312665 *  0.309745 *  0.575790 *  -2.86902    1.000000    
    453 O     s    0.231719 *  0.228800 *  0.928252 *  -2.86902    1.000000    
    454 O     s    0.882098 *  0.879178 *  0.602130 *  -2.86902    1.000000    
    455 O     s    0.381744 *  0.378825 *  0.282814 *  -2.86902    1.000000    
    456 O     s    0.000523 *  0.822888 *  0.118171 *  -2.86902    1.000000    
    457 O     s    0.000523 *  0.829001 *  0.602396 *  -2.86902    1.000000    
    458 O     s    0.931158 *  0.831228 *  0.001798 *  -2.86902    1.000000    
    459 O     s    0.168014 *  0.316870 *  0.001798 *  -2.86902    1.000000    
    460 O     s    0.253604 *  0.402323 *  0.501798 *  -2.86902    1.000000    
    461 O     s    0.916021 *  0.795888 *  0.501798 *  -2.86902    1.000000    
    462 O     s    0.500523 *  0.331098 *  0.269431 *  -2.86902    1.000000    
    463 O     s    0.190261 *  0.337750 *  0.601424 *  -2.86902    1.000000    
    464 O     s    0.164868 *  0.308165 *  0.731314 *  -2.86902    1.000000    
    465 O     s    0.100179 *  0.245159 *  0.628182 *  -2.86902    1.000000    
    466 O     s    0.248421 *  0.891568 *  0.100112 *  -2.86902    1.000000    
    467 O     s    0.576216 *  0.284056 *  0.634712 *  -2.86902    1.000000    
    468 O     s    0.811908 *  0.657659 *  0.864874 *  -2.86902    1.000000    
    469 O     s    0.742877 *  0.598200 *  0.765857 *  -2.86902    1.000000    
    470 O     s    0.224537 *  0.221617 *  0.649199 *  -2.86902    1.000000    
    471 O     s    0.726318 *  0.723398 *  0.788460 *  -2.86902    1.000000    
    472 O     s    0.117871 *  0.880256 *  0.117421 *  -2.86902    1.000000    
    473 O     s    0.688382 *  0.309745 *  0.575790 *  -2.86902    1.000000    
    474 O     s    0.769327 *  0.228800 *  0.928252 *  -2.86902    1.000000    
    475 O     s    0.118948 *  0.879178 *  0.602130 *  -2.86902    1.000000    
    476 O     s    0.619302 *  0.378825 *  0.282814 *  -2.86902    1.000000    
    477 O     s    0.175239 *  0.997604 *  0.118171 *  -2.86902    1.000000    
    478 O     s    0.169126 *  0.997604 *  0.602396 *  -2.86902    1.000000    
    479 O     s    0.166899 *  0.928238 *  0.001798 *  -2.86902    1.000000    
    480 O     s    0.681257 *  0.165094 *  0.001798 *  -2.86902    1.000000    
    481 O     s    0.595804 *  0.250685 *  0.501798 *  -2.86902    1.000000    
    482 O     s    0.202239 *  0.913101 *  0.501798 *  -2.86902    1.000000    
    483 O     s    0.667029 *  0.497604 *  0.269431 *  -2.86902    1.000000    
    484 O     s    0.660377 *  0.187342 *  0.601424 *  -2.86902    1.000000    
    485 O     s    0.689961 *  0.161948 *  0.731314 *  -2.86902    1.000000    
    486 O     s    0.752968 *  0.097259 *  0.628182 *  -2.86902    1.000000    
    487 O     s    0.106558 *  0.245502 *  0.100112 *  -2.86902    1.000000    
    488 O     s    0.714071 *  0.573296 *  0.634712 *  -2.86902    1.000000    
    489 O     s    0.340468 *  0.808988 *  0.864874 *  -2.86902    1.000000    
    490 O     s    0.399926 *  0.739957 *  0.765857 *  -2.86902    1.000000    
    491 O     s    0.776510 *  0.221617 *  0.649199 *  -2.86902    1.000000    
    492 O     s    0.274729 *  0.723398 *  0.788460 *  -2.86902    1.000000    
    493 O     s    0.117871 *  0.114951 *  0.117421 *  -2.86902    1.000000    
    494 O     s    0.688382 *  0.685462 *  0.575790 *  -2.86902    1.000000    
    495 O     s    0.769327 *  0.766408 *  0.928252 *  -2.86902    1.000000    
    496 O     s    0.118948 *  0.116029 *  0.602130 *  -2.86902    1.000000    
    497 O     s    0.619302 *  0.616382 *  0.282814 *  -2.86902    1.000000    
    498 O     s    0.000523 *  0.172319 *  0.118171 *  -2.86902    1.000000    
    499 O     s    0.000523 *  0.166207 *  0.602396 *  -2.86902    1.000000    
    500 O     s    0.069889 *  0.163979 *  0.001798 *  -2.86902    1.000000    
    501 O     s    0.833033 *  0.678338 *  0.001798 *  -2.86902    1.000000    
    502 O     s    0.747442 *  0.592884 *  0.501798 *  -2.86902    1.000000    
    503 O     s    0.085026 *  0.199320 *  0.501798 *  -2.86902    1.000000    
    504 O     s    0.500523 *  0.664109 *  0.269431 *  -2.86902    1.000000    
    505 O     s    0.190261 *  0.657457 *  0.601424 *  -2.86902    1.000000    
    506 O     s    0.164868 *  0.687042 *  0.731314 *  -2.86902    1.000000    
    507 O     s    0.100179 *  0.750049 *  0.628182 *  -2.86902    1.000000    
    508 O     s    0.248421 *  0.103639 *  0.100112 *  -2.86902    1.000000    
    509 O     s    0.576216 *  0.711151 *  0.634712 *  -2.86902    1.000000    
    510 O     s    0.811908 *  0.337549 *  0.864874 *  -2.86902    1.000000    
    511 O     s    0.742877 *  0.397007 *  0.765857 *  -2.86902    1.000000    
    512 O     s    0.340670 *  0.187342 *  0.601424 *  -2.86902    1.000000    
    513 O     s    0.311085 *  0.161948 *  0.731314 *  -2.86902    1.000000    
    514 O     s    0.248078 *  0.097259 *  0.628182 *  -2.86902    1.000000    
    515 O     s    0.894488 *  0.245502 *  0.100112 *  -2.86902    1.000000    
    516 O     s    0.286976 *  0.573296 *  0.634712 *  -2.86902    1.000000    
    517 O     s    0.660578 *  0.808988 *  0.864874 *  -2.86902    1.000000    
    518 O     s    0.601120 *  0.739957 *  0.765857 *  -2.86902    1.000000    
    519 O     s    0.810785 *  0.337750 *  0.601424 *  -2.86902    1.000000    
    520 O     s    0.836179 *  0.308165 *  0.731314 *  -2.86902    1.000000    
    521 O     s    0.900868 *  0.245159 *  0.628182 *  -2.86902    1.000000    
    522 O     s    0.752625 *  0.891568 *  0.100112 *  -2.86902    1.000000    
    523 O     s    0.424831 *  0.284056 *  0.634712 *  -2.86902    1.000000    
    524 O     s    0.189139 *  0.657659 *  0.864874 *  -2.86902    1.000000    
    525 O     s    0.258170 *  0.598200 *  0.765857 *  -2.86902    1.000000    
    526 O     s    0.660377 *  0.807866 *  0.601424 *  -2.86902    1.000000    
    527 O     s    0.689961 *  0.833259 *  0.731314 *  -2.86902    1.000000    
    528 O     s    0.752968 *  0.897948 *  0.628182 *  -2.86902    1.000000    
    529 O     s    0.106558 *  0.749706 *  0.100112 *  -2.86902    1.000000    
    530 O     s    0.714071 *  0.421911 *  0.634712 *  -2.86902    1.000000    
    531 O     s    0.340468 *  0.186219 *  0.864874 *  -2.86902    1.000000    
    532 O     s    0.399926 *  0.255250 *  0.765857 *  -2.86902    1.000000    
    533 O     s    0.190261 *  0.337750 *  0.402172 *  -2.86902    1.000000    
    534 O     s    0.164868 *  0.308165 *  0.272282 *  -2.86902    1.000000    
    535 O     s    0.100179 *  0.245159 *  0.375415 *  -2.86902    1.000000    
    536 O     s    0.248421 *  0.891568 *  0.903485 *  -2.86902    1.000000    
    537 O     s    0.576216 *  0.284056 *  0.368884 *  -2.86902    1.000000    
    538 O     s    0.811908 *  0.657659 *  0.138723 *  -2.86902    1.000000    
    539 O     s    0.742877 *  0.598200 *  0.237740 *  -2.86902    1.000000    
    540 O     s    0.660377 *  0.187342 *  0.402172 *  -2.86902    1.000000    
    541 O     s    0.689961 *  0.161948 *  0.272282 *  -2.86902    1.000000    
    542 O     s    0.752968 *  0.097259 *  0.375415 *  -2.86902    1.000000    
    543 O     s    0.106558 *  0.245502 *  0.903485 *  -2.86902    1.000000    
    544 O     s    0.714071 *  0.573296 *  0.368884 *  -2.86902    1.000000    
    545 O     s    0.340468 *  0.808988 *  0.138723 *  -2.86902    1.000000    
    546 O     s    0.399926 *  0.739957 *  0.237740 *  -2.86902    1.000000    
    547 O     s    0.810785 *  0.657457 *  0.402172 *  -2.86902    1.000000    
    548 O     s    0.836179 *  0.687042 *  0.272282 *  -2.86902    1.000000    
    549 O     s    0.900868 *  0.750049 *  0.375415 *  -2.86902    1.000000    
    550 O     s    0.752625 *  0.103639 *  0.903485 *  -2.86902    1.000000    
    551 O     s    0.424831 *  0.711151 *  0.368884 *  -2.86902    1.000000    
    552 O     s    0.189139 *  0.337549 *  0.138723 *  -2.86902    1.000000    
    553 O     s    0.258170 *  0.397007 *  0.237740 *  -2.86902    1.000000    
    554 O     s    0.340670 *  0.807866 *  0.402172 *  -2.86902    1.000000    
    555 O     s    0.311085 *  0.833259 *  0.272282 *  -2.86902    1.000000    
    556 O     s    0.248078 *  0.897948 *  0.375415 *  -2.86902    1.000000    
    557 O     s    0.894488 *  0.749706 *  0.903485 *  -2.86902    1.000000    
    558 O     s    0.286976 *  0.421911 *  0.368884 *  -2.86902    1.000000    
    559 O     s    0.660578 *  0.186219 *  0.138723 *  -2.86902    1.000000    
    560 O     s    0.601120 *  0.255250 *  0.237740 *  -2.86902    1.000000    
--------------------------------------------------------------------------------



********************************************************************************
*  General input information                                                   *
********************************************************************************

  Species output for all configurations : 

--------------------------------------------------------------------------------
  Species    Type    Atomic    Atomic    Charge       Radii (Angs)     Library
                     Number     Mass       (e)     Cova   Ionic  VDW   Symbol
--------------------------------------------------------------------------------
    O        Core        8      16.00   0.869020   0.730  0.000  1.360 O        
    O        Shell       8       0.00  -2.869020   0.730  0.000  0.000 O        
    Si       Core       14      28.09   4.000000   1.200  0.000  2.100 Si       
--------------------------------------------------------------------------------


  Lattice summation method               =    Ewald          (3-D)
                                         =    Parry          (2-D)
                                         =    Saunders et al (1-D)
  Accuracy factor for lattice sums       =   12.000


  Analytic derivatives to be used

  Time limit = Infinity

  Maximum range for interatomic potentials =    100000.000000 Angstroms

  General interatomic potentials :

--------------------------------------------------------------------------------
Atom  Types   Potential      Parameter       Value         Units   Cutoffs(Ang)
  1     2                                                            Min /  Max 
--------------------------------------------------------------------------------
Si   c O    s Buckingham    Buckingham A     1283.9070    eV        0.000 10.000
                            Buckingham rho  0.32052000    Ang       
                            Buckingham C     10.661580    eV*Ang^6  
--------------------------------------------------------------------------------
O    s O    s Buckingham    Buckingham A     22764.000    eV        0.000 12.000
                            Buckingham rho  0.14900000    Ang       
                            Buckingham C     27.879000    eV*Ang^6  
--------------------------------------------------------------------------------
O    c O    s Spring (c-s)  Spring k 2       74.920000    eV*Ang^-2 0.000  1.100
                            Spring k 4       0.0000000    eV*Ang^-4 
--------------------------------------------------------------------------------

  General Three-body potentials :

--------------------------------------------------------------------------------
  Atoms       Potential      Parameter       Value         Units   Cutoffs(Ang)
  1 / 2 / 3                                                          Min /  Max 
--------------------------------------------------------------------------------
Si    core    Harmonic      Three-body cnst  2.0972400    eV*rad^-2 0.000  1.900
O     shel                  Three-body angl  109.47000    degrees   0.000  1.900
O     shel                  Three-body k4    0.0000000    eV*rad^-4 0.000  3.500
                            Three-body k3    0.0000000    eV*rad^-3 
--------------------------------------------------------------------------------
Si    core    Harmonic      Three-body cnst  2.0972400    eV*rad^-2 0.000  1.900
O     shel                  Three-body angl  109.47000    degrees   0.000  1.900
(    shel                  Three-body k4    0.0000000    eV*rad^-4 0.000  3.500
                            Three-body k3    0.0000000    eV*rad^-3 
--------------------------------------------------------------------------------
Si    core    Harmonic      Three-body cnst  2.0972400    eV*rad^-2 0.000  1.900
(    shel                  Three-body angl  109.47000    degrees   0.000  1.900
(    shel                  Three-body k4    0.0000000    eV*rad^-4 0.000  3.500
                            Three-body k3    0.0000000    eV*rad^-3 
--------------------------------------------------------------------------------

********************************************************************************
*  Output for configuration   1 : ReferenceDataBase/8312978_111                *
********************************************************************************


  Components of energy : 

--------------------------------------------------------------------------------
  Interatomic potentials     =        3448.98459476 eV    
  Three-body potentials      =           0.56742499 eV    
  Monopole - monopole (real) =      -14297.25421945 eV    
  Monopole - monopole (recip)=       -3305.47785365 eV    
  Monopole - monopole (total)=      -17602.73207310 eV    
--------------------------------------------------------------------------------
  Total lattice energy       =      -14153.18005334 eV    
--------------------------------------------------------------------------------
  Total lattice energy       =        -1365565.5240 kJ/(mole unit cells)
--------------------------------------------------------------------------------


  Number of variables =      672

  Maximum number of calculations  =           500
  Maximum Hessian update interval =            10
  Maximum step size               =   0.100000000
  Maximum parameter tolerance     =   0.000010000
  Maximum function  tolerance     =   0.000010000
  Maximum gradient  tolerance     =   0.001000000
  Maximum gradient  component     =   0.010000000

  Newton-Raphson optimiser to be used

  BFGS hessian update to be used

  Lower half triangular hessian to be used

  Minimiser to switch to RFO
  When gradient norm is less than     0.080000

  Switch max step size to       0.30000000 when gnorm is less than     0.005000

  Shell only optimisation

  Dumpfile to be written after every cycle

  Start of bulk optimisation :

  Cycle:      0 Energy:    -14153.180053  Gnorm:      7.792966  CPU:    3.353
  ** Hessian calculated **
  Cycle:      1 Energy:    -14358.924979  Gnorm:      2.404591  CPU:    5.183
  ** Hessian calculated **
  Cycle:      2 Energy:    -14379.372200  Gnorm:      0.471064  CPU:    9.519
  ** Hessian calculated **
  Cycle:      3 Energy:    -14379.982643  Gnorm:      0.235398  CPU:   13.353
  Cycle:      4 Energy:    -14380.134590  Gnorm:      0.117599  CPU:   14.562
  Cycle:      5 Energy:    -14380.172435  Gnorm:      0.058775  CPU:   15.775
  ** Hessian has required structure
  ** Hessian has required structure
  Cycle:      6 Energy:    -14380.181928  Gnorm:      0.029385  CPU:   20.722
  ** Hessian has required structure
  Cycle:      7 Energy:    -14380.184300  Gnorm:      0.014691  CPU:   22.525
  ** Hessian has required structure
  Cycle:      8 Energy:    -14380.184893  Gnorm:      0.007345  CPU:   24.333
  ** Hessian has required structure
  Cycle:      9 Energy:    -14380.184994  Gnorm:      0.005141  CPU:   25.744
  ** Hessian has required structure
  Cycle:     10 Energy:    -14380.185044  Gnorm:      0.003599  CPU:   27.139
  ** Hessian has required structure
  Cycle:     11 Energy:    -14380.185080  Gnorm:      0.001748  CPU:   28.530
  ** Hessian has required structure
  Cycle:     12 Energy:    -14380.185091  Gnorm:      0.000298  CPU:   29.946
  ** Hessian has required structure


  **** Optimisation achieved ****


  Final energy =  -14380.18509099 eV      
  Final Gnorm  =       0.00002980

  Components of energy : 

--------------------------------------------------------------------------------
  Interatomic potentials     =        3951.81279130 eV    
  Three-body potentials      =           4.86658853 eV    
  Monopole - monopole (real) =      -13654.03879075 eV    
  Monopole - monopole (recip)=       -4682.82568008 eV    
  Monopole - monopole (total)=      -18336.86447082 eV    
--------------------------------------------------------------------------------
  Total lattice energy       =      -14380.18509099 eV    
--------------------------------------------------------------------------------
  Total lattice energy       =        -1387468.0400 kJ/(mole unit cells)
--------------------------------------------------------------------------------

  Final fractional coordinates of atoms :

--------------------------------------------------------------------------------
   No.  Atomic        x           y          z          Radius
        Label       (Frac)      (Frac)     (Frac)       (Angs) 
--------------------------------------------------------------------------------
     1  Si    c     0.831884    0.277653    0.350752    0.000000
     2  Si    c     0.823812    0.924388    0.919210    0.000000
     3  Si    c     0.371716    0.257889    0.425133    0.000000
     4  Si    c     0.221263    0.665737    0.216018    0.000000
     5  Si    c     0.285789    0.171324    0.078851    0.000000
     6  Si    c     0.816789    0.921652    0.420388    0.000000
     7  Si    c     0.315720    0.422758    0.713659    0.000000
     8  O     c     0.810785    0.337750    0.402172    0.000000
     9  O     c     0.836179    0.308165    0.272282    0.000000
    10  O     c     0.900868    0.245159    0.375415    0.000000
    11  O     c     0.752625    0.891568    0.903485    0.000000
    12  O     c     0.424831    0.284056    0.368884    0.000000
    13  O     c     0.189139    0.657659    0.138723    0.000000
    14  O     c     0.258170    0.598200    0.237740    0.000000
    15  O     c     0.776510    0.221617    0.354397    0.000000
    16  O     c     0.274729    0.723398    0.215137    0.000000
    17  O     c     0.883176    0.880256    0.886175    0.000000
    18  O     c     0.312665    0.309745    0.427806    0.000000
    19  O     c     0.231719    0.228800    0.075345    0.000000
    20  O     c     0.882098    0.879178    0.401467    0.000000
    21  O     c     0.381744    0.378825    0.720783    0.000000
    22  O     c     0.825808    0.997604    0.885425    0.000000
    23  O     c     0.831920    0.997604    0.401201    0.000000
    24  O     c     0.834148    0.928238    0.001798    0.000000
    25  O     c     0.319789    0.165094    0.001798    0.000000
    26  O     c     0.405243    0.250685    0.501798    0.000000
    27  O     c     0.798807    0.913101    0.501798    0.000000
    28  O     c     0.334018    0.497604    0.734166    0.000000
    29  Si    c     0.720474    0.828964    0.350752    0.000000
    30  Si    c     0.073739    0.820892    0.919210    0.000000
    31  Si    c     0.740238    0.368796    0.425133    0.000000
    32  Si    c     0.332390    0.218343    0.216018    0.000000
    33  Si    c     0.826803    0.282870    0.078851    0.000000
    34  Si    c     0.076475    0.813869    0.420388    0.000000
    35  Si    c     0.575369    0.312801    0.713659    0.000000
    36  O     c     0.660377    0.807866    0.402172    0.000000
    37  O     c     0.689961    0.833259    0.272282    0.000000
    38  O     c     0.752968    0.897948    0.375415    0.000000
    39  O     c     0.106558    0.749706    0.903485    0.000000
    40  O     c     0.714071    0.421911    0.368884    0.000000
    41  O     c     0.340468    0.186219    0.138723    0.000000
    42  O     c     0.399926    0.255250    0.237740    0.000000
    43  O     c     0.776510    0.773590    0.354397    0.000000
    44  O     c     0.274729    0.271809    0.215137    0.000000
    45  O     c     0.117871    0.880256    0.886175    0.000000
    46  O     c     0.688382    0.309745    0.427806    0.000000
    47  O     c     0.769327    0.228800    0.075345    0.000000
    48  O     c     0.118948    0.879178    0.401467    0.000000
    49  O     c     0.619302    0.378825    0.720783    0.000000
    50  O     c     0.000523    0.822888    0.885425    0.000000
    51  O     c     0.000523    0.829001    0.401201    0.000000
    52  O     c     0.069889    0.831228    0.001798    0.000000
    53  O     c     0.833033    0.316870    0.001798    0.000000
    54  O     c     0.747442    0.402323    0.501798    0.000000
    55  O     c     0.085026    0.795888    0.501798    0.000000
    56  O     c     0.500523    0.331098    0.734166    0.000000
    57  Si    c     0.169163    0.717554    0.350752    0.000000
    58  Si    c     0.177235    0.070819    0.919210    0.000000
    59  Si    c     0.629331    0.737318    0.425133    0.000000
    60  Si    c     0.779784    0.329470    0.216018    0.000000
    61  Si    c     0.715257    0.823883    0.078851    0.000000
    62  Si    c     0.184258    0.073556    0.420388    0.000000
    63  Si    c     0.685326    0.572449    0.713659    0.000000
    64  O     c     0.190261    0.657457    0.402172    0.000000
    65  O     c     0.164868    0.687042    0.272282    0.000000
    66  O     c     0.100179    0.750049    0.375415    0.000000
    67  O     c     0.248421    0.103639    0.903485    0.000000
    68  O     c     0.576216    0.711151    0.368884    0.000000
    69  O     c     0.811908    0.337549    0.138723    0.000000
    70  O     c     0.742877    0.397007    0.237740    0.000000
    71  O     c     0.224537    0.773590    0.354397    0.000000
    72  O     c     0.726318    0.271809    0.215137    0.000000
    73  O     c     0.117871    0.114951    0.886175    0.000000
    74  O     c     0.688382    0.685462    0.427806    0.000000
    75  O     c     0.769327    0.766408    0.075345    0.000000
    76  O     c     0.118948    0.116029    0.401467    0.000000
    77  O     c     0.619302    0.616382    0.720783    0.000000
    78  O     c     0.175239    0.997604    0.885425    0.000000
    79  O     c     0.169126    0.997604    0.401201    0.000000
    80  O     c     0.166899    0.066969    0.001798    0.000000
    81  O     c     0.681257    0.830113    0.001798    0.000000
    82  O     c     0.595803    0.744523    0.501798    0.000000
    83  O     c     0.202239    0.082106    0.501798    0.000000
    84  O     c     0.667029    0.497604    0.734166    0.000000
    85  Si    c     0.280573    0.166243    0.350752    0.000000
    86  Si    c     0.927308    0.174315    0.919210    0.000000
    87  Si    c     0.260808    0.626411    0.425133    0.000000
    88  Si    c     0.668657    0.776864    0.216018    0.000000
    89  Si    c     0.174244    0.712337    0.078851    0.000000
    90  Si    c     0.924571    0.181338    0.420388    0.000000
    91  Si    c     0.425678    0.682407    0.713659    0.000000
    92  O     c     0.340670    0.187342    0.402172    0.000000
    93  O     c     0.311085    0.161948    0.272282    0.000000
    94  O     c     0.248078    0.097259    0.375415    0.000000
    95  O     c     0.894488    0.245502    0.903485    0.000000
    96  O     c     0.286976    0.573296    0.368884    0.000000
    97  O     c     0.660578    0.808988    0.138723    0.000000
    98  O     c     0.601120    0.739957    0.237740    0.000000
    99  O     c     0.224537    0.221617    0.354397    0.000000
   100  O     c     0.726318    0.723398    0.215137    0.000000
   101  O     c     0.883176    0.114951    0.886175    0.000000
   102  O     c     0.312665    0.685462    0.427806    0.000000
   103  O     c     0.231719    0.766408    0.075345    0.000000
   104  O     c     0.882098    0.116029    0.401467    0.000000
   105  O     c     0.381744    0.616382    0.720783    0.000000
   106  O     c     0.000523    0.172319    0.885425    0.000000
   107  O     c     0.000523    0.166207    0.401201    0.000000
   108  O     c     0.931158    0.163979    0.001798    0.000000
   109  O     c     0.168014    0.678338    0.001798    0.000000
   110  O     c     0.253604    0.592884    0.501798    0.000000
   111  O     c     0.916021    0.199320    0.501798    0.000000
   112  O     c     0.500523    0.664109    0.734166    0.000000
   113  Si    c     0.831884    0.717554    0.652844    0.000000
   114  Si    c     0.823812    0.070819    0.084387    0.000000
   115  Si    c     0.371716    0.737318    0.578464    0.000000
   116  Si    c     0.221263    0.329470    0.787578    0.000000
   117  Si    c     0.285789    0.823883    0.924746    0.000000
   118  Si    c     0.816789    0.073556    0.583209    0.000000
   119  Si    c     0.315720    0.572449    0.289938    0.000000
   120  O     c     0.810785    0.657457    0.601424    0.000000
   121  O     c     0.836179    0.687042    0.731314    0.000000
   122  O     c     0.900868    0.750049    0.628182    0.000000
   123  O     c     0.752625    0.103639    0.100112    0.000000
   124  O     c     0.424831    0.711151    0.634712    0.000000
   125  O     c     0.189139    0.337549    0.864874    0.000000
   126  O     c     0.258170    0.397007    0.765857    0.000000
   127  O     c     0.776510    0.773590    0.649199    0.000000
   128  O     c     0.274729    0.271809    0.788460    0.000000
   129  O     c     0.883176    0.114951    0.117421    0.000000
   130  O     c     0.312665    0.685462    0.575790    0.000000
   131  O     c     0.231719    0.766408    0.928252    0.000000
   132  O     c     0.882098    0.116029    0.602130    0.000000
   133  O     c     0.381744    0.616382    0.282814    0.000000
   134  O     c     0.825808    0.997604    0.118171    0.000000
   135  O     c     0.831920    0.997604    0.602396    0.000000
   136  O     c     0.834148    0.066969    0.001798    0.000000
   137  O     c     0.319789    0.830113    0.001798    0.000000
   138  O     c     0.405243    0.744523    0.501798    0.000000
   139  O     c     0.798807    0.082106    0.501798    0.000000
   140  O     c     0.334018    0.497604    0.269431    0.000000
   141  Si    c     0.280573    0.828964    0.652844    0.000000
   142  Si    c     0.927308    0.820892    0.084387    0.000000
   143  Si    c     0.260808    0.368796    0.578464    0.000000
   144  Si    c     0.668657    0.218343    0.787578    0.000000
   145  Si    c     0.174244    0.282870    0.924746    0.000000
   146  Si    c     0.924571    0.813869    0.583209    0.000000
   147  Si    c     0.425678    0.312801    0.289938    0.000000
   148  O     c     0.340670    0.807866    0.601424    0.000000
   149  O     c     0.311085    0.833259    0.731314    0.000000
   150  O     c     0.248078    0.897948    0.628182    0.000000
   151  O     c     0.894488    0.749706    0.100112    0.000000
   152  O     c     0.286976    0.421911    0.634712    0.000000
   153  O     c     0.660578    0.186219    0.864874    0.000000
   154  O     c     0.601120    0.255250    0.765857    0.000000
   155  O     c     0.224537    0.773590    0.649199    0.000000
   156  O     c     0.726318    0.271809    0.788460    0.000000
   157  O     c     0.883176    0.880256    0.117421    0.000000
   158  O     c     0.312665    0.309745    0.575790    0.000000
   159  O     c     0.231719    0.228800    0.928252    0.000000
   160  O     c     0.882098    0.879178    0.602130    0.000000
   161  O     c     0.381744    0.378825    0.282814    0.000000
   162  O     c     0.000523    0.822888    0.118171    0.000000
   163  O     c     0.000523    0.829001    0.602396    0.000000
   164  O     c     0.931158    0.831228    0.001798    0.000000
   165  O     c     0.168014    0.316870    0.001798    0.000000
   166  O     c     0.253604    0.402323    0.501798    0.000000
   167  O     c     0.916021    0.795888    0.501798    0.000000
   168  O     c     0.500523    0.331098    0.269431    0.000000
   169  Si    c     0.169163    0.277653    0.652844    0.000000
   170  Si    c     0.177235    0.924388    0.084387    0.000000
   171  Si    c     0.629331    0.257889    0.578464    0.000000
   172  Si    c     0.779784    0.665737    0.787578    0.000000
   173  Si    c     0.715257    0.171324    0.924746    0.000000
   174  Si    c     0.184258    0.921652    0.583209    0.000000
   175  Si    c     0.685326    0.422758    0.289938    0.000000
   176  O     c     0.190261    0.337750    0.601424    0.000000
   177  O     c     0.164868    0.308165    0.731314    0.000000
   178  O     c     0.100179    0.245159    0.628182    0.000000
   179  O     c     0.248421    0.891568    0.100112    0.000000
   180  O     c     0.576216    0.284056    0.634712    0.000000
   181  O     c     0.811908    0.657659    0.864874    0.000000
   182  O     c     0.742877    0.598200    0.765857    0.000000
   183  O     c     0.224537    0.221617    0.649199    0.000000
   184  O     c     0.726318    0.723398    0.788460    0.000000
   185  O     c     0.117871    0.880256    0.117421    0.000000
   186  O     c     0.688382    0.309745    0.575790    0.000000
   187  O     c     0.769327    0.228800    0.928252    0.000000
   188  O     c     0.118948    0.879178    0.602130    0.000000
   189  O     c     0.619302    0.378825    0.282814    0.000000
   190  O     c     0.175239    0.997604    0.118171    0.000000
   191  O     c     0.169126    0.997604    0.602396    0.000000
   192  O     c     0.166899    0.928238    0.001798    0.000000
   193  O     c     0.681257    0.165094    0.001798    0.000000
   194  O     c     0.595804    0.250685    0.501798    0.000000
   195  O     c     0.202239    0.913101    0.501798    0.000000
   196  O     c     0.667029    0.497604    0.269431    0.000000
   197  Si    c     0.720474    0.166243    0.652844    0.000000
   198  Si    c     0.073739    0.174315    0.084387    0.000000
   199  Si    c     0.740238    0.626411    0.578464    0.000000
   200  Si    c     0.332390    0.776864    0.787578    0.000000
   201  Si    c     0.826803    0.712337    0.924746    0.000000
   202  Si    c     0.076475    0.181338    0.583209    0.000000
   203  Si    c     0.575369    0.682407    0.289938    0.000000
   204  O     c     0.660377    0.187342    0.601424    0.000000
   205  O     c     0.689961    0.161948    0.731314    0.000000
   206  O     c     0.752968    0.097259    0.628182    0.000000
   207  O     c     0.106558    0.245502    0.100112    0.000000
   208  O     c     0.714071    0.573296    0.634712    0.000000
   209  O     c     0.340468    0.808988    0.864874    0.000000
   210  O     c     0.399926    0.739957    0.765857    0.000000
   211  O     c     0.776510    0.221617    0.649199    0.000000
   212  O     c     0.274729    0.723398    0.788460    0.000000
   213  O     c     0.117871    0.114951    0.117421    0.000000
   214  O     c     0.688382    0.685462    0.575790    0.000000
   215  O     c     0.769327    0.766408    0.928252    0.000000
   216  O     c     0.118948    0.116029    0.602130    0.000000
   217  O     c     0.619302    0.616382    0.282814    0.000000
   218  O     c     0.000523    0.172319    0.118171    0.000000
   219  O     c     0.000523    0.166207    0.602396    0.000000
   220  O     c     0.069889    0.163979    0.001798    0.000000
   221  O     c     0.833033    0.678338    0.001798    0.000000
   222  O     c     0.747442    0.592884    0.501798    0.000000
   223  O     c     0.085026    0.199320    0.501798    0.000000
   224  O     c     0.500523    0.664109    0.269431    0.000000
   225  Si    c     0.169163    0.717554    0.652844    0.000000
   226  Si    c     0.177235    0.070819    0.084387    0.000000
   227  Si    c     0.629331    0.737318    0.578464    0.000000
   228  Si    c     0.779784    0.329470    0.787578    0.000000
   229  Si    c     0.715257    0.823883    0.924746    0.000000
   230  Si    c     0.184258    0.073556    0.583209    0.000000
   231  Si    c     0.685326    0.572449    0.289938    0.000000
   232  O     c     0.190261    0.657457    0.601424    0.000000
   233  O     c     0.164868    0.687042    0.731314    0.000000
   234  O     c     0.100179    0.750049    0.628182    0.000000
   235  O     c     0.248421    0.103639    0.100112    0.000000
   236  O     c     0.576216    0.711151    0.634712    0.000000
   237  O     c     0.811908    0.337549    0.864874    0.000000
   238  O     c     0.742877    0.397007    0.765857    0.000000
   239  Si    c     0.280573    0.166243    0.652844    0.000000
   240  Si    c     0.927308    0.174315    0.084387    0.000000
   241  Si    c     0.260808    0.626411    0.578464    0.000000
   242  Si    c     0.668657    0.776864    0.787578    0.000000
   243  Si    c     0.174244    0.712337    0.924746    0.000000
   244  Si    c     0.924571    0.181338    0.583209    0.000000
   245  Si    c     0.425678    0.682407    0.289938    0.000000
   246  O     c     0.340670    0.187342    0.601424    0.000000
   247  O     c     0.311085    0.161948    0.731314    0.000000
   248  O     c     0.248078    0.097259    0.628182    0.000000
   249  O     c     0.894488    0.245502    0.100112    0.000000
   250  O     c     0.286976    0.573296    0.634712    0.000000
   251  O     c     0.660578    0.808988    0.864874    0.000000
   252  O     c     0.601120    0.739957    0.765857    0.000000
   253  Si    c     0.831884    0.277653    0.652844    0.000000
   254  Si    c     0.823812    0.924388    0.084387    0.000000
   255  Si    c     0.371716    0.257889    0.578464    0.000000
   256  Si    c     0.221263    0.665737    0.787578    0.000000
   257  Si    c     0.285789    0.171324    0.924746    0.000000
   258  Si    c     0.816789    0.921652    0.583209    0.000000
   259  Si    c     0.315720    0.422758    0.289938    0.000000
   260  O     c     0.810785    0.337750    0.601424    0.000000
   261  O     c     0.836179    0.308165    0.731314    0.000000
   262  O     c     0.900868    0.245159    0.628182    0.000000
   263  O     c     0.752625    0.891568    0.100112    0.000000
   264  O     c     0.424831    0.284056    0.634712    0.000000
   265  O     c     0.189139    0.657659    0.864874    0.000000
   266  O     c     0.258170    0.598200    0.765857    0.000000
   267  Si    c     0.720474    0.828964    0.652844    0.000000
   268  Si    c     0.073739    0.820892    0.084387    0.000000
   269  Si    c     0.740238    0.368796    0.578464    0.000000
   270  Si    c     0.332390    0.218343    0.787578    0.000000
   271  Si    c     0.826803    0.282870    0.924746    0.000000
   272  Si    c     0.076475    0.813869    0.583209    0.000000
   273  Si    c     0.575369    0.312801    0.289938    0.000000
   274  O     c     0.660377    0.807866    0.601424    0.000000
   275  O     c     0.689961    0.833259    0.731314    0.000000
   276  O     c     0.752968    0.897948    0.628182    0.000000
   277  O     c     0.106558    0.749706    0.100112    0.000000
   278  O     c     0.714071    0.421911    0.634712    0.000000
   279  O     c     0.340468    0.186219    0.864874    0.000000
   280  O     c     0.399926    0.255250    0.765857    0.000000
   281  Si    c     0.169163    0.277653    0.350752    0.000000
   282  Si    c     0.177235    0.924388    0.919210    0.000000
   283  Si    c     0.629331    0.257889    0.425133    0.000000
   284  Si    c     0.779784    0.665737    0.216018    0.000000
   285  Si    c     0.715257    0.171324    0.078851    0.000000
   286  Si    c     0.184258    0.921652    0.420388    0.000000
   287  Si    c     0.685326    0.422758    0.713659    0.000000
   288  O     c     0.190261    0.337750    0.402172    0.000000
   289  O     c     0.164868    0.308165    0.272282    0.000000
   290  O     c     0.100179    0.245159    0.375415    0.000000
   291  O     c     0.248421    0.891568    0.903485    0.000000
   292  O     c     0.576216    0.284056    0.368884    0.000000
   293  O     c     0.811908    0.657659    0.138723    0.000000
   294  O     c     0.742877    0.598200    0.237740    0.000000
   295  Si    c     0.720474    0.166243    0.350752    0.000000
   296  Si    c     0.073739    0.174315    0.919210    0.000000
   297  Si    c     0.740238    0.626411    0.425133    0.000000
   298  Si    c     0.332390    0.776864    0.216018    0.000000
   299  Si    c     0.826803    0.712337    0.078851    0.000000
   300  Si    c     0.076475    0.181338    0.420388    0.000000
   301  Si    c     0.575369    0.682407    0.713659    0.000000
   302  O     c     0.660377    0.187342    0.402172    0.000000
   303  O     c     0.689961    0.161948    0.272282    0.000000
   304  O     c     0.752968    0.097259    0.375415    0.000000
   305  O     c     0.106558    0.245502    0.903485    0.000000
   306  O     c     0.714071    0.573296    0.368884    0.000000
   307  O     c     0.340468    0.808988    0.138723    0.000000
   308  O     c     0.399926    0.739957    0.237740    0.000000
   309  Si    c     0.831884    0.717554    0.350752    0.000000
   310  Si    c     0.823812    0.070819    0.919210    0.000000
   311  Si    c     0.371716    0.737318    0.425133    0.000000
   312  Si    c     0.221263    0.329470    0.216018    0.000000
   313  Si    c     0.285789    0.823883    0.078851    0.000000
   314  Si    c     0.816789    0.073556    0.420388    0.000000
   315  Si    c     0.315720    0.572449    0.713659    0.000000
   316  O     c     0.810785    0.657457    0.402172    0.000000
   317  O     c     0.836179    0.687042    0.272282    0.000000
   318  O     c     0.900868    0.750049    0.375415    0.000000
   319  O     c     0.752625    0.103639    0.903485    0.000000
   320  O     c     0.424831    0.711151    0.368884    0.000000
   321  O     c     0.189139    0.337549    0.138723    0.000000
   322  O     c     0.258170    0.397007    0.237740    0.000000
   323  Si    c     0.280573    0.828964    0.350752    0.000000
   324  Si    c     0.927308    0.820892    0.919210    0.000000
   325  Si    c     0.260808    0.368796    0.425133    0.000000
   326  Si    c     0.668657    0.218343    0.216018    0.000000
   327  Si    c     0.174244    0.282870    0.078851    0.000000
   328  Si    c     0.924571    0.813869    0.420388    0.000000
   329  Si    c     0.425678    0.312801    0.713659    0.000000
   330  O     c     0.340670    0.807866    0.402172    0.000000
   331  O     c     0.311085    0.833259    0.272282    0.000000
   332  O     c     0.248078    0.897948    0.375415    0.000000
   333  O     c     0.894488    0.749706    0.903485    0.000000
   334  O     c     0.286976    0.421911    0.368884    0.000000
   335  O     c     0.660578    0.186219    0.138723    0.000000
   336  O     c     0.601120    0.255250    0.237740    0.000000
   337  O     s     0.805543    0.334728    0.399162    0.000000
   338  O     s     0.829891    0.307224    0.274615    0.000000
   339  O     s     0.895804    0.241979    0.377436    0.000000
   340  O     s     0.756320    0.887842    0.907480    0.000000
   341  O     s     0.419070    0.284238    0.366651    0.000000
   342  O     s     0.190932    0.664310    0.140479    0.000000
   343  O     s     0.260236    0.602886    0.240924    0.000000
   344  O     s     0.776455    0.221672    0.353581    0.000000
   345  O     s     0.275218    0.722908    0.215358    0.000000
   346  O     s     0.881559    0.878639    0.893056    0.000000
   347  O     s     0.313512    0.310592    0.427159    0.000000
   348  O     s     0.231296    0.228376    0.076130    0.000000
   349  O     s     0.879607    0.876688    0.405552    0.000000
   350  O     s     0.379266    0.376347    0.719208    0.000000
   351  O     s     0.825384    0.997604    0.892713    0.000000
   352  O     s     0.828553    0.997604    0.405506    0.000000
   353  O     s     0.831755    0.927347    0.001798    0.000000
   354  O     s     0.312843    0.166365    0.001798    0.000000
   355  O     s     0.398180    0.252203    0.501798    0.000000
   356  O     s     0.802799    0.914968    0.501798    0.000000
   357  O     s     0.329937    0.497604    0.729581    0.000000
   358  O     s     0.663399    0.802623    0.399162    0.000000
   359  O     s     0.690903    0.826971    0.274615    0.000000
   360  O     s     0.756148    0.892885    0.377436    0.000000
   361  O     s     0.110285    0.753401    0.907480    0.000000
   362  O     s     0.713889    0.416150    0.366651    0.000000
   363  O     s     0.333817    0.188013    0.140479    0.000000
   364  O     s     0.395240    0.257316    0.240924    0.000000
   365  O     s     0.776455    0.773535    0.353581    0.000000
   366  O     s     0.275218    0.272299    0.215358    0.000000
   367  O     s     0.119488    0.878639    0.893056    0.000000
   368  O     s     0.687534    0.310593    0.427159    0.000000
   369  O     s     0.769751    0.228376    0.076130    0.000000
   370  O     s     0.121439    0.876688    0.405552    0.000000
[...]
    308 O     c       0.000000      0.000000      0.000000      0.000000
    309 Si    c       0.000000      0.000000      0.000000      0.000000
    310 Si    c       0.000000      0.000000      0.000000      0.000000
    311 Si    c       0.000000      0.000000      0.000000      0.000000
    312 Si    c       0.000000      0.000000      0.000000      0.000000
    313 Si    c       0.000000      0.000000      0.000000      0.000000
    314 Si    c       0.000000      0.000000      0.000000      0.000000
    315 Si    c       0.000000      0.000000      0.000000      0.000000
    316 O     c       0.000000      0.000000      0.000000      0.000000
    317 O     c       0.000000      0.000000      0.000000      0.000000
    318 O     c       0.000000      0.000000      0.000000      0.000000
    319 O     c       0.000000      0.000000      0.000000      0.000000
    320 O     c       0.000000      0.000000      0.000000      0.000000
    321 O     c       0.000000      0.000000      0.000000      0.000000
    322 O     c       0.000000      0.000000      0.000000      0.000000
    323 Si    c       0.000000      0.000000      0.000000      0.000000
    324 Si    c       0.000000      0.000000      0.000000      0.000000
    325 Si    c       0.000000      0.000000      0.000000      0.000000
    326 Si    c       0.000000      0.000000      0.000000      0.000000
    327 Si    c       0.000000      0.000000      0.000000      0.000000
    328 Si    c       0.000000      0.000000      0.000000      0.000000
    329 Si    c       0.000000      0.000000      0.000000      0.000000
    330 O     c       0.000000      0.000000      0.000000      0.000000
    331 O     c       0.000000      0.000000      0.000000      0.000000
    332 O     c       0.000000      0.000000      0.000000      0.000000
    333 O     c       0.000000      0.000000      0.000000      0.000000
    334 O     c       0.000000      0.000000      0.000000      0.000000
    335 O     c       0.000000      0.000000      0.000000      0.000000
    336 O     c       0.000000      0.000000      0.000000      0.000000
    337 O     s       0.001255      0.000783      0.000535      0.000000
    338 O     s       0.001506      0.000320     -0.000394      0.000000
    339 O     s       0.001089      0.000748     -0.000443      0.000000
    340 O     s      -0.000900      0.000893     -0.000902      0.000000
    341 O     s       0.001384     -0.000172      0.000534      0.000000
    342 O     s      -0.000505     -0.001454     -0.000301      0.000000
    343 O     s      -0.000505     -0.001138     -0.000786      0.000000
    344 O     s       0.000165     -0.000165      0.000104      0.000000
    345 O     s      -0.000069      0.000069     -0.000239      0.000000
    346 O     s       0.000453      0.000453     -0.001414      0.000000
    347 O     s      -0.000066     -0.000066      0.000251      0.000000
    348 O     s       0.000294      0.000294     -0.000053      0.000000
    349 O     s       0.000674      0.000674     -0.000945      0.000000
    350 O     s       0.000800      0.000800      0.000490      0.000000
    351 O     s       0.000007     -0.000000     -0.001454      0.000000
    352 O     s       0.000574      0.000000     -0.001026      0.000000
    353 O     s       0.000491      0.000354      0.000000      0.000000
    354 O     s       0.001657     -0.000271      0.000000      0.000000
    355 O     s       0.001567     -0.000459     -0.000000      0.000000
    356 O     s      -0.001008     -0.000168     -0.000000      0.000000
    357 O     s       0.000727     -0.000000      0.000824      0.000000
    358 O     s      -0.000783      0.001255      0.000535      0.000000
    359 O     s      -0.000320      0.001506     -0.000394      0.000000
    360 O     s      -0.000748      0.001089     -0.000443      0.000000
    361 O     s      -0.000893     -0.000900     -0.000902      0.000000
    362 O     s       0.000172      0.001384      0.000534      0.000000
    363 O     s       0.001454     -0.000505     -0.000301      0.000000
    364 O     s       0.001138     -0.000505     -0.000786      0.000000
    365 O     s       0.000165      0.000165      0.000104      0.000000
    366 O     s      -0.000069     -0.000069     -0.000239      0.000000
    367 O     s      -0.000453      0.000453     -0.001414      0.000000
    368 O     s       0.000066     -0.000066      0.000251      0.000000
    369 O     s      -0.000294      0.000294     -0.000053      0.000000
    370 O     s      -0.000674      0.000674     -0.000945      0.000000
    371 O     s      -0.000800      0.000800      0.000490      0.000000
    372 O     s       0.000000      0.000007     -0.001454      0.000000
    373 O     s       0.000000      0.000574     -0.001026      0.000000
    374 O     s      -0.000354      0.000491     -0.000000      0.000000
    375 O     s       0.000271      0.001657      0.000000      0.000000
    376 O     s       0.000459      0.001567     -0.000000      0.000000
    377 O     s       0.000168     -0.001008     -0.000000      0.000000
    378 O     s       0.000000      0.000727      0.000824      0.000000
    379 O     s      -0.001255     -0.000783      0.000535      0.000000
    380 O     s      -0.001506     -0.000320     -0.000394      0.000000
    381 O     s      -0.001089     -0.000748     -0.000443      0.000000
    382 O     s       0.000900     -0.000893     -0.000902      0.000000
    383 O     s      -0.001384      0.000172      0.000534      0.000000
    384 O     s       0.000505      0.001454     -0.000301      0.000000
    385 O     s       0.000505      0.001138     -0.000786      0.000000
    386 O     s      -0.000165      0.000165      0.000104      0.000000
    387 O     s       0.000069     -0.000069     -0.000239      0.000000
    388 O     s      -0.000453     -0.000453     -0.001414      0.000000
    389 O     s       0.000066      0.000066      0.000251      0.000000
    390 O     s      -0.000294     -0.000294     -0.000053      0.000000
    391 O     s      -0.000674     -0.000674     -0.000945      0.000000
    392 O     s      -0.000800     -0.000800      0.000490      0.000000
    393 O     s      -0.000007     -0.000000     -0.001454      0.000000
    394 O     s      -0.000574      0.000000     -0.001026      0.000000
    395 O     s      -0.000491     -0.000354      0.000000      0.000000
    396 O     s      -0.001657      0.000271     -0.000000      0.000000
    397 O     s      -0.001567      0.000459      0.000000      0.000000
    398 O     s       0.001008      0.000168     -0.000000      0.000000
    399 O     s      -0.000727      0.000000      0.000824      0.000000
    400 O     s       0.000783     -0.001255      0.000535      0.000000
    401 O     s       0.000320     -0.001506     -0.000394      0.000000
    402 O     s       0.000748     -0.001089     -0.000443      0.000000
    403 O     s       0.000893      0.000900     -0.000902      0.000000
    404 O     s      -0.000172     -0.001384      0.000534      0.000000
    405 O     s      -0.001454      0.000505     -0.000301      0.000000
    406 O     s      -0.001138      0.000505     -0.000786      0.000000
    407 O     s      -0.000165     -0.000165      0.000104      0.000000
    408 O     s       0.000069      0.000069     -0.000239      0.000000
    409 O     s       0.000453     -0.000453     -0.001414      0.000000
    410 O     s      -0.000066      0.000066      0.000251      0.000000
    411 O     s       0.000294     -0.000294     -0.000053      0.000000
    412 O     s       0.000674     -0.000674     -0.000945      0.000000
    413 O     s       0.000800     -0.000800      0.000490      0.000000
    414 O     s      -0.000000     -0.000007     -0.001454      0.000000
    415 O     s       0.000000     -0.000574     -0.001026      0.000000
    416 O     s       0.000354     -0.000491      0.000000      0.000000
    417 O     s      -0.000271     -0.001657     -0.000000      0.000000
    418 O     s      -0.000459     -0.001567     -0.000000      0.000000
    419 O     s      -0.000168      0.001008      0.000000      0.000000
    420 O     s       0.000000     -0.000727      0.000824      0.000000
    421 O     s       0.001255     -0.000783     -0.000535      0.000000
    422 O     s       0.001506     -0.000320      0.000394      0.000000
    423 O     s       0.001089     -0.000748      0.000443      0.000000
    424 O     s      -0.000900     -0.000893      0.000902      0.000000
    425 O     s       0.001384      0.000172     -0.000534      0.000000
    426 O     s      -0.000505      0.001454      0.000301      0.000000
    427 O     s      -0.000505      0.001138      0.000786      0.000000
    428 O     s       0.000165      0.000165     -0.000104      0.000000
    429 O     s      -0.000069     -0.000069      0.000239      0.000000
    430 O     s       0.000453     -0.000453      0.001414      0.000000
    431 O     s      -0.000066      0.000066     -0.000251      0.000000
    432 O     s       0.000294     -0.000294      0.000053      0.000000
    433 O     s       0.000674     -0.000674      0.000945      0.000000
    434 O     s       0.000800     -0.000800     -0.000490      0.000000
    435 O     s       0.000007     -0.000000      0.001454      0.000000
    436 O     s       0.000574     -0.000000      0.001026      0.000000
    437 O     s       0.000491     -0.000354     -0.000000      0.000000
    438 O     s       0.001657      0.000271     -0.000000      0.000000
    439 O     s       0.001567      0.000459     -0.000000      0.000000
    440 O     s      -0.001008      0.000168     -0.000000      0.000000
    441 O     s       0.000727     -0.000000     -0.000824      0.000000
    442 O     s       0.000783      0.001255     -0.000535      0.000000
    443 O     s       0.000320      0.001506      0.000394      0.000000
    444 O     s       0.000748      0.001089      0.000443      0.000000
    445 O     s       0.000893     -0.000900      0.000902      0.000000
    446 O     s      -0.000172      0.001384     -0.000534      0.000000
    447 O     s      -0.001454     -0.000505      0.000301      0.000000
    448 O     s      -0.001138     -0.000505      0.000786      0.000000
    449 O     s      -0.000165      0.000165     -0.000104      0.000000
    450 O     s       0.000069     -0.000069      0.000239      0.000000
    451 O     s       0.000453      0.000453      0.001414      0.000000
    452 O     s      -0.000066     -0.000066     -0.000251      0.000000
    453 O     s       0.000294      0.000294      0.000053      0.000000
    454 O     s       0.000674      0.000674      0.000945      0.000000
    455 O     s       0.000800      0.000800     -0.000490      0.000000
    456 O     s      -0.000000      0.000007      0.001454      0.000000
    457 O     s       0.000000      0.000574      0.001026      0.000000
    458 O     s       0.000354      0.000491     -0.000000      0.000000
    459 O     s      -0.000271      0.001657     -0.000000      0.000000
    460 O     s      -0.000459      0.001567      0.000000      0.000000
    461 O     s      -0.000168     -0.001008     -0.000000      0.000000
    462 O     s      -0.000000      0.000727     -0.000824      0.000000
    463 O     s      -0.001255      0.000783     -0.000535      0.000000
    464 O     s      -0.001506      0.000320      0.000394      0.000000
    465 O     s      -0.001089      0.000748      0.000443      0.000000
    466 O     s       0.000900      0.000893      0.000902      0.000000
    467 O     s      -0.001384     -0.000172     -0.000534      0.000000
    468 O     s       0.000505     -0.001454      0.000301      0.000000
    469 O     s       0.000505     -0.001138      0.000786      0.000000
    470 O     s      -0.000165     -0.000165     -0.000104      0.000000
    471 O     s       0.000069      0.000069      0.000239      0.000000
    472 O     s      -0.000453      0.000453      0.001414      0.000000
    473 O     s       0.000066     -0.000066     -0.000251      0.000000
    474 O     s      -0.000294      0.000294      0.000053      0.000000
    475 O     s      -0.000674      0.000674      0.000945      0.000000
    476 O     s      -0.000800      0.000800     -0.000490      0.000000
    477 O     s      -0.000007     -0.000000      0.001454      0.000000
    478 O     s      -0.000574      0.000000      0.001026      0.000000
    479 O     s      -0.000491      0.000354     -0.000000      0.000000
    480 O     s      -0.001657     -0.000271     -0.000000      0.000000
    481 O     s      -0.001567     -0.000459      0.000000      0.000000
    482 O     s       0.001008     -0.000168     -0.000000      0.000000
    483 O     s      -0.000727      0.000000     -0.000824      0.000000
    484 O     s      -0.000783     -0.001255     -0.000535      0.000000
    485 O     s      -0.000320     -0.001506      0.000394      0.000000
    486 O     s      -0.000748     -0.001089      0.000443      0.000000
    487 O     s      -0.000893      0.000900      0.000902      0.000000
    488 O     s       0.000172     -0.001384     -0.000534      0.000000
    489 O     s       0.001454      0.000505      0.000301      0.000000
    490 O     s       0.001138      0.000505      0.000786      0.000000
    491 O     s       0.000165     -0.000165     -0.000104      0.000000
    492 O     s      -0.000069      0.000069      0.000239      0.000000
    493 O     s      -0.000453     -0.000453      0.001414      0.000000
    494 O     s       0.000066      0.000066     -0.000251      0.000000
    495 O     s      -0.000294     -0.000294      0.000053      0.000000
    496 O     s      -0.000674     -0.000674      0.000945      0.000000
    497 O     s      -0.000800     -0.000800     -0.000490      0.000000
    498 O     s       0.000000     -0.000007      0.001454      0.000000
    499 O     s       0.000000     -0.000574      0.001026      0.000000
    500 O     s      -0.000354     -0.000491     -0.000000      0.000000
    501 O     s       0.000271     -0.001657      0.000000      0.000000
    502 O     s       0.000459     -0.001567     -0.000000      0.000000
    503 O     s       0.000168      0.001008      0.000000      0.000000
    504 O     s      -0.000000     -0.000727     -0.000824      0.000000
    505 O     s      -0.001255     -0.000783     -0.000535      0.000000
    506 O     s      -0.001506     -0.000320      0.000394      0.000000
    507 O     s      -0.001089     -0.000748      0.000443      0.000000
    508 O     s       0.000900     -0.000893      0.000902      0.000000
    509 O     s      -0.001384      0.000172     -0.000534      0.000000
    510 O     s       0.000505      0.001454      0.000301      0.000000
    511 O     s       0.000505      0.001138      0.000786      0.000000
    512 O     s       0.000783     -0.001255     -0.000535      0.000000
    513 O     s       0.000320     -0.001506      0.000394      0.000000
    514 O     s       0.000748     -0.001089      0.000443      0.000000
    515 O     s       0.000893      0.000900      0.000902      0.000000
    516 O     s      -0.000172     -0.001384     -0.000534      0.000000
    517 O     s      -0.001454      0.000505      0.000301      0.000000
    518 O     s      -0.001138      0.000505      0.000786      0.000000
    519 O     s       0.001255      0.000783     -0.000535      0.000000
    520 O     s       0.001506      0.000320      0.000394      0.000000
    521 O     s       0.001089      0.000748      0.000443      0.000000
    522 O     s      -0.000900      0.000893      0.000902      0.000000
    523 O     s       0.001384     -0.000172     -0.000534      0.000000
    524 O     s      -0.000505     -0.001454      0.000301      0.000000
    525 O     s      -0.000505     -0.001138      0.000786      0.000000
    526 O     s      -0.000783      0.001255     -0.000535      0.000000
    527 O     s      -0.000320      0.001506      0.000394      0.000000
    528 O     s      -0.000748      0.001089      0.000443      0.000000
    529 O     s      -0.000893     -0.000900      0.000902      0.000000
    530 O     s       0.000172      0.001384     -0.000534      0.000000
    531 O     s       0.001454     -0.000505      0.000301      0.000000
    532 O     s       0.001138     -0.000505      0.000786      0.000000
    533 O     s      -0.001255      0.000783      0.000535      0.000000
    534 O     s      -0.001506      0.000320     -0.000394      0.000000
    535 O     s      -0.001089      0.000748     -0.000443      0.000000
    536 O     s       0.000900      0.000893     -0.000902      0.000000
    537 O     s      -0.001384     -0.000172      0.000534      0.000000
    538 O     s       0.000505     -0.001454     -0.000301      0.000000
    539 O     s       0.000505     -0.001139     -0.000786      0.000000
    540 O     s      -0.000783     -0.001255      0.000535      0.000000
    541 O     s      -0.000320     -0.001506     -0.000394      0.000000
    542 O     s      -0.000748     -0.001089     -0.000443      0.000000
    543 O     s      -0.000893      0.000900     -0.000902      0.000000
    544 O     s       0.000172     -0.001384      0.000534      0.000000
    545 O     s       0.001454      0.000505     -0.000301      0.000000
    546 O     s       0.001138      0.000505     -0.000786      0.000000
    547 O     s       0.001255     -0.000783      0.000535      0.000000
    548 O     s       0.001506     -0.000320     -0.000394      0.000000
    549 O     s       0.001089     -0.000748     -0.000443      0.000000
    550 O     s      -0.000900     -0.000893     -0.000902      0.000000
    551 O     s       0.001384      0.000172      0.000534      0.000000
    552 O     s      -0.000505      0.001454     -0.000301      0.000000
    553 O     s      -0.000505      0.001138     -0.000786      0.000000
    554 O     s       0.000783      0.001255      0.000535      0.000000
    555 O     s       0.000320      0.001506     -0.000394      0.000000
    556 O     s       0.000748      0.001089     -0.000443      0.000000
    557 O     s       0.000893     -0.000900     -0.000902      0.000000
    558 O     s      -0.000172      0.001384      0.000534      0.000000
    559 O     s      -0.001454     -0.000505     -0.000301      0.000000
    560 O     s      -0.001138     -0.000505     -0.000786      0.000000
--------------------------------------------------------------------------------
  Maximum abs         0.001657      0.001657      0.001454      0.000000
--------------------------------------------------------------------------------


  Time to end of optimisation =      31.8279 seconds


  Peak dynamic memory used =      14.71 MB 


  Timing analysis for GULP :

--------------------------------------------------------------------------------
  Task / Subroutine                                          Time (Seconds)
--------------------------------------------------------------------------------
  Calculation of reciprocal space energy and derivatives         13.0956
  Calculation of real space energy and derivatives               10.1330
  Calculation of three-body energy and derivatives                3.1575
  Calculation and manipulation of Hessian matrix                  5.2444
  Calculation of matrix inversion                                 0.1214
  Symmetry generation of equivalent positions                     0.0014
--------------------------------------------------------------------------------
  Total CPU time                                                 31.8279
--------------------------------------------------------------------------------


  Dump file written as ReferenceDataBase/8312978_111.grs
  CIF file written as ReferenceDataBase/8312978_111_opt.cif


  Job Finished at 00:42.54  6th February   2024                               

