********************************************************************************
*                       GENERAL UTILITY LATTICE PROGRAM                        *
*                                 Julian Gale                                  *
*                       Curtin Institute for Computation                       *
*                    School of Molecular and Life Sciences                     *
*                    Curtin University, Western Australia                      *
********************************************************************************
* Version = 6.1.2 * Last modified =   3rd November 2022                        *
********************************************************************************
*  optimise     - perform optimisation run                                     *
*  conv         - constant volume calculation                                  *
*  shell        - only shells and radii to be optimised                        *
*  nosymmetry   - turn off symmetry after initial structure generation         *
********************************************************************************

  Job Started  at 00:42.55  6th February   2024                               

  Number of CPUs =     1


  Total number of configurations input =      1

********************************************************************************
*  Input for Configuration =   1 : ReferenceDataBase/8317769_111               *
********************************************************************************

  Formula = Si88O176                                                    

  Number of irreducible atoms/shells =     440


  Total number atoms/shells =     440

  Dimensionality = 3               :  Bulk   



  Cartesian lattice vectors (Angstroms) :

       16.123900    0.000000    0.000000
        0.000000   16.123900    0.000000
        0.000000    0.000000   20.677300

  Cell parameters (Angstroms/Degrees):

  a =      16.1239    alpha =  90.0000
  b =      16.1239    beta  =  90.0000
  c =      20.6773    gamma =  90.0000

  Initial cell volume =        5375.687581 Angs**3

  Temperature of configuration =   0.00     K 

  Pressure of configuration =         0.000 GPa 

  Fractional coordinates of asymmetric unit :

--------------------------------------------------------------------------------
   No.  Atomic       x           y          z         Charge      Occupancy
        Label      (Frac)      (Frac)     (Frac)        (e)         (Frac)  
--------------------------------------------------------------------------------
      1 Si    c    0.469619    0.264942    0.851781     4.00000    1.000000    
      2 Si    c    0.781598    0.911150    0.836838     4.00000    1.000000    
      3 Si    c    0.143285    0.275980    0.698853     4.00000    1.000000    
      4 Si    c    0.275733    0.407974    0.295375     4.00000    1.000000    
      5 Si    c    0.810331    0.672487    0.926945     4.00000    1.000000    
      6 O     c    0.562496    0.228417    0.848018     0.86902    1.000000    
      7 O     c    0.469514    0.349897    0.891533     0.86902    1.000000    
      8 O     c    0.433162    0.281705    0.781231     0.86902    1.000000    
      9 O     c    0.414636    0.196489    0.888414     0.86902    1.000000    
     10 O     c    0.732065    0.881853    0.773770     0.86902    1.000000    
     11 O     c    0.730872    0.881752    0.899275     0.86902    1.000000    
     12 O     c    0.787648    0.010076    0.839819     0.86902    1.000000    
     13 O     c    0.187245    0.365285    0.690630     0.86902    1.000000    
     14 Si    c    0.932434    0.068656    0.574910     4.00000    1.000000    
     15 O     c    0.873737    0.871272    0.836924     0.86902    1.000000    
     16 O     c    0.204989    0.202524    0.678320     0.86902    1.000000    
     17 O     c    0.348384    0.345920    0.314690     0.86902    1.000000    
     18 O     c    0.722460    0.719995    0.918837     0.86902    1.000000    
     19 O     c    0.909280    0.091811    0.500843     0.86902    1.000000    
     20 O     c    0.001778    0.999313    0.577383     0.86902    1.000000    
     21 O     c    0.831478    0.653815    0.000843     0.86902    1.000000    
     22 Si    c    0.236149    0.967155    0.351781     4.00000    1.000000    
     23 Si    c    0.589941    0.279134    0.336838     4.00000    1.000000    
     24 Si    c    0.225110    0.640820    0.198853     4.00000    1.000000    
     25 Si    c    0.093116    0.773268    0.795375     4.00000    1.000000    
     26 Si    c    0.828603    0.307867    0.426945     4.00000    1.000000    
     27 O     c    0.272673    0.060032    0.348017     0.86902    1.000000    
     28 O     c    0.151193    0.967049    0.391533     0.86902    1.000000    
     29 O     c    0.219385    0.930697    0.281231     0.86902    1.000000    
     30 O     c    0.304602    0.912171    0.388414     0.86902    1.000000    
     31 O     c    0.619237    0.229600    0.273770     0.86902    1.000000    
     32 O     c    0.619338    0.228407    0.399275     0.86902    1.000000    
     33 O     c    0.491015    0.285184    0.339819     0.86902    1.000000    
     34 O     c    0.135805    0.684780    0.190630     0.86902    1.000000    
     35 Si    c    0.432434    0.429969    0.074910     4.00000    1.000000    
     36 O     c    0.629818    0.371272    0.336924     0.86902    1.000000    
     37 O     c    0.298566    0.702524    0.178320     0.86902    1.000000    
     38 O     c    0.155171    0.845920    0.814690     0.86902    1.000000    
     39 O     c    0.781095    0.219995    0.418837     0.86902    1.000000    
     40 O     c    0.409280    0.406815    0.000843     0.86902    1.000000    
     41 O     c    0.501778    0.499313    0.077383     0.86902    1.000000    
     42 O     c    0.847275    0.329014    0.500843     0.86902    1.000000    
     43 Si    c    0.533936    0.733684    0.851781     4.00000    1.000000    
     44 Si    c    0.221957    0.087476    0.836838     4.00000    1.000000    
     45 Si    c    0.860270    0.722645    0.698853     4.00000    1.000000    
     46 Si    c    0.727822    0.590651    0.295375     4.00000    1.000000    
     47 Si    c    0.193224    0.326139    0.926945     4.00000    1.000000    
     48 O     c    0.441059    0.770209    0.848018     0.86902    1.000000    
     49 O     c    0.534041    0.648729    0.891533     0.86902    1.000000    
     50 O     c    0.570393    0.716921    0.781231     0.86902    1.000000    
     51 O     c    0.588919    0.802137    0.888414     0.86902    1.000000    
     52 O     c    0.271490    0.116772    0.773770     0.86902    1.000000    
     53 O     c    0.272683    0.116873    0.899275     0.86902    1.000000    
     54 O     c    0.215907    0.988550    0.839819     0.86902    1.000000    
     55 O     c    0.816310    0.633340    0.690630     0.86902    1.000000    
     56 Si    c    0.071121    0.929969    0.574910     4.00000    1.000000    
     57 O     c    0.129818    0.127353    0.836924     0.86902    1.000000    
     58 O     c    0.798566    0.796102    0.678320     0.86902    1.000000    
     59 O     c    0.655171    0.652706    0.314690     0.86902    1.000000    
     60 O     c    0.281095    0.278630    0.918837     0.86902    1.000000    
     61 O     c    0.094275    0.906815    0.500843     0.86902    1.000000    
     62 O     c    0.172077    0.344810    0.000843     0.86902    1.000000    
     63 Si    c    0.767406    0.031471    0.351781     4.00000    1.000000    
     64 Si    c    0.413614    0.719492    0.336838     4.00000    1.000000    
     65 Si    c    0.778445    0.357806    0.198853     4.00000    1.000000    
     66 Si    c    0.910439    0.225358    0.795375     4.00000    1.000000    
     67 Si    c    0.174952    0.690759    0.426945     4.00000    1.000000    
     68 O     c    0.730882    0.938594    0.348017     0.86902    1.000000    
     69 O     c    0.852362    0.031576    0.391533     0.86902    1.000000    
     70 O     c    0.784170    0.067928    0.281231     0.86902    1.000000    
     71 O     c    0.698953    0.086455    0.388414     0.86902    1.000000    
     72 O     c    0.384318    0.769025    0.273770     0.86902    1.000000    
     73 O     c    0.384217    0.770219    0.399275     0.86902    1.000000    
     74 O     c    0.512540    0.713442    0.339819     0.86902    1.000000    
     75 O     c    0.867750    0.313846    0.190630     0.86902    1.000000    
     76 Si    c    0.571121    0.568656    0.074910     4.00000    1.000000    
     77 O     c    0.373737    0.627353    0.336924     0.86902    1.000000    
     78 O     c    0.704989    0.296101    0.178320     0.86902    1.000000    
     79 O     c    0.848384    0.152706    0.814690     0.86902    1.000000    
     80 O     c    0.222460    0.778631    0.418837     0.86902    1.000000    
     81 O     c    0.594275    0.591811    0.000843     0.86902    1.000000    
     82 O     c    0.156280    0.669612    0.500843     0.86902    1.000000    
     83 Si    c    0.969619    0.233684    0.649906     4.00000    1.000000    
     84 Si    c    0.281598    0.587476    0.664848     4.00000    1.000000    
     85 Si    c    0.643285    0.222646    0.802833     4.00000    1.000000    
     86 Si    c    0.775733    0.090651    0.206311     4.00000    1.000000    
     87 Si    c    0.310331    0.826139    0.574742     4.00000    1.000000    
     88 O     c    0.062496    0.270209    0.653669     0.86902    1.000000    
     89 O     c    0.969514    0.148729    0.610153     0.86902    1.000000    
     90 O     c    0.933162    0.216921    0.720455     0.86902    1.000000    
     91 O     c    0.914636    0.302137    0.613272     0.86902    1.000000    
     92 O     c    0.232065    0.616772    0.727916     0.86902    1.000000    
     93 O     c    0.230872    0.616873    0.602411     0.86902    1.000000    
     94 O     c    0.287648    0.488550    0.661867     0.86902    1.000000    
     95 O     c    0.687245    0.133340    0.811056     0.86902    1.000000    
     96 Si    c    0.432434    0.429969    0.926777     4.00000    1.000000    
     97 O     c    0.373737    0.627353    0.664763     0.86902    1.000000    
     98 O     c    0.704989    0.296101    0.823366     0.86902    1.000000    
     99 O     c    0.848384    0.152706    0.186996     0.86902    1.000000    
    100 O     c    0.222460    0.778631    0.582850     0.86902    1.000000    
    101 O     c    0.501778    0.499313    0.924303     0.86902    1.000000    
    102 O     c    0.331478    0.844810    0.500843     0.86902    1.000000    
    103 Si    c    0.267406    0.467155    0.149906     4.00000    1.000000    
    104 Si    c    0.913614    0.779134    0.164848     4.00000    1.000000    
    105 Si    c    0.278445    0.140820    0.302833     4.00000    1.000000    
    106 Si    c    0.410439    0.273268    0.706311     4.00000    1.000000    
    107 Si    c    0.674952    0.807867    0.074742     4.00000    1.000000    
    108 O     c    0.230882    0.560032    0.153669     0.86902    1.000000    
    109 O     c    0.352362    0.467049    0.110153     0.86902    1.000000    
    110 O     c    0.284170    0.430697    0.220455     0.86902    1.000000    
    111 O     c    0.198953    0.412171    0.113272     0.86902    1.000000    
    112 O     c    0.884318    0.729600    0.227916     0.86902    1.000000    
    113 O     c    0.884217    0.728407    0.102411     0.86902    1.000000    
    114 O     c    0.012540    0.785184    0.161867     0.86902    1.000000    
    115 O     c    0.367750    0.184780    0.311056     0.86902    1.000000    
    116 Si    c    0.071121    0.929969    0.426777     4.00000    1.000000    
    117 O     c    0.873737    0.871272    0.164763     0.86902    1.000000    
    118 O     c    0.204989    0.202524    0.323366     0.86902    1.000000    
    119 O     c    0.348384    0.345920    0.686997     0.86902    1.000000    
    120 O     c    0.722460    0.719995    0.082850     0.86902    1.000000    
    121 O     c    0.001778    0.999313    0.424303     0.86902    1.000000    
    122 O     c    0.656280    0.829014    0.000843     0.86902    1.000000    
    123 Si    c    0.033936    0.764942    0.649906     4.00000    1.000000    
    124 Si    c    0.721957    0.411150    0.664848     4.00000    1.000000    
    125 Si    c    0.360270    0.775980    0.802833     4.00000    1.000000    
    126 Si    c    0.227822    0.907974    0.206311     4.00000    1.000000    
    127 Si    c    0.693224    0.172487    0.574742     4.00000    1.000000    
    128 O     c    0.941059    0.728417    0.653669     0.86902    1.000000    
    129 O     c    0.034041    0.849897    0.610153     0.86902    1.000000    
    130 O     c    0.070393    0.781705    0.720455     0.86902    1.000000    
    131 O     c    0.088919    0.696489    0.613272     0.86902    1.000000    
    132 O     c    0.771490    0.381853    0.727916     0.86902    1.000000    
    133 O     c    0.772683    0.381752    0.602411     0.86902    1.000000    
    134 O     c    0.715907    0.510076    0.661867     0.86902    1.000000    
    135 O     c    0.316310    0.865285    0.811056     0.86902    1.000000    
    136 Si    c    0.571121    0.568656    0.926777     4.00000    1.000000    
    137 O     c    0.629818    0.371272    0.664763     0.86902    1.000000    
    138 O     c    0.298566    0.702524    0.823366     0.86902    1.000000    
    139 O     c    0.155171    0.845920    0.186996     0.86902    1.000000    
    140 O     c    0.781095    0.219995    0.582850     0.86902    1.000000    
    141 O     c    0.672077    0.153815    0.500843     0.86902    1.000000    
    142 Si    c    0.736149    0.531471    0.149906     4.00000    1.000000    
    143 Si    c    0.089941    0.219492    0.164848     4.00000    1.000000    
    144 Si    c    0.725110    0.857806    0.302833     4.00000    1.000000    
    145 Si    c    0.593116    0.725358    0.706311     4.00000    1.000000    
    146 Si    c    0.328603    0.190759    0.074742     4.00000    1.000000    
    147 O     c    0.772673    0.438594    0.153669     0.86902    1.000000    
    148 O     c    0.651193    0.531576    0.110153     0.86902    1.000000    
    149 O     c    0.719385    0.567928    0.220455     0.86902    1.000000    
    150 O     c    0.804602    0.586455    0.113272     0.86902    1.000000    
    151 O     c    0.119237    0.269025    0.227916     0.86902    1.000000    
    152 O     c    0.119338    0.270219    0.102411     0.86902    1.000000    
    153 O     c    0.991015    0.213442    0.161867     0.86902    1.000000    
    154 O     c    0.635805    0.813846    0.311056     0.86902    1.000000    
    155 Si    c    0.932434    0.068656    0.426777     4.00000    1.000000    
    156 O     c    0.129818    0.127353    0.164763     0.86902    1.000000    
    157 O     c    0.798566    0.796102    0.323366     0.86902    1.000000    
    158 O     c    0.655171    0.652706    0.686997     0.86902    1.000000    
    159 O     c    0.281095    0.278630    0.082850     0.86902    1.000000    
    160 O     c    0.347275    0.169612    0.000843     0.86902    1.000000    
    161 Si    c    0.533936    0.733684    0.149906     4.00000    1.000000    
    162 Si    c    0.221957    0.087476    0.164848     4.00000    1.000000    
    163 Si    c    0.860270    0.722645    0.302833     4.00000    1.000000    
    164 Si    c    0.727822    0.590651    0.706311     4.00000    1.000000    
    165 Si    c    0.193224    0.326139    0.074742     4.00000    1.000000    
    166 O     c    0.441059    0.770209    0.153669     0.86902    1.000000    
    167 O     c    0.534041    0.648729    0.110153     0.86902    1.000000    
    168 O     c    0.570393    0.716921    0.220455     0.86902    1.000000    
    169 O     c    0.588919    0.802137    0.113272     0.86902    1.000000    
    170 O     c    0.271490    0.116772    0.227916     0.86902    1.000000    
    171 O     c    0.272683    0.116873    0.102411     0.86902    1.000000    
    172 O     c    0.215907    0.988550    0.161867     0.86902    1.000000    
    173 O     c    0.816310    0.633340    0.311056     0.86902    1.000000    
    174 Si    c    0.767406    0.031471    0.649906     4.00000    1.000000    
    175 Si    c    0.413614    0.719492    0.664848     4.00000    1.000000    
    176 Si    c    0.778445    0.357806    0.802833     4.00000    1.000000    
    177 Si    c    0.910439    0.225358    0.206311     4.00000    1.000000    
    178 Si    c    0.174952    0.690759    0.574742     4.00000    1.000000    
    179 O     c    0.730882    0.938594    0.653669     0.86902    1.000000    
    180 O     c    0.852362    0.031576    0.610153     0.86902    1.000000    
    181 O     c    0.784170    0.067928    0.720455     0.86902    1.000000    
    182 O     c    0.698953    0.086455    0.613272     0.86902    1.000000    
    183 O     c    0.384318    0.769025    0.727916     0.86902    1.000000    
    184 O     c    0.384217    0.770219    0.602411     0.86902    1.000000    
    185 O     c    0.512540    0.713442    0.661867     0.86902    1.000000    
    186 O     c    0.867750    0.313846    0.811056     0.86902    1.000000    
    187 Si    c    0.469619    0.264942    0.149906     4.00000    1.000000    
    188 Si    c    0.781598    0.911150    0.164848     4.00000    1.000000    
    189 Si    c    0.143285    0.275980    0.302833     4.00000    1.000000    
    190 Si    c    0.275733    0.407974    0.706311     4.00000    1.000000    
    191 Si    c    0.810331    0.672487    0.074742     4.00000    1.000000    
    192 O     c    0.562496    0.228417    0.153669     0.86902    1.000000    
    193 O     c    0.469514    0.349897    0.110153     0.86902    1.000000    
    194 O     c    0.433162    0.281705    0.220455     0.86902    1.000000    
    195 O     c    0.414636    0.196489    0.113272     0.86902    1.000000    
    196 O     c    0.732065    0.881853    0.227916     0.86902    1.000000    
    197 O     c    0.730872    0.881752    0.102411     0.86902    1.000000    
    198 O     c    0.787648    0.010076    0.161867     0.86902    1.000000    
    199 O     c    0.187245    0.365285    0.311056     0.86902    1.000000    
    200 Si    c    0.236149    0.967155    0.649906     4.00000    1.000000    
    201 Si    c    0.589941    0.279134    0.664848     4.00000    1.000000    
    202 Si    c    0.225110    0.640820    0.802833     4.00000    1.000000    
    203 Si    c    0.093116    0.773268    0.206311     4.00000    1.000000    
    204 Si    c    0.828603    0.307867    0.574742     4.00000    1.000000    
    205 O     c    0.272673    0.060032    0.653669     0.86902    1.000000    
    206 O     c    0.151193    0.967049    0.610153     0.86902    1.000000    
    207 O     c    0.219385    0.930697    0.720455     0.86902    1.000000    
    208 O     c    0.304602    0.912171    0.613272     0.86902    1.000000    
    209 O     c    0.619237    0.229600    0.727916     0.86902    1.000000    
    210 O     c    0.619338    0.228407    0.602411     0.86902    1.000000    
    211 O     c    0.491015    0.285184    0.661867     0.86902    1.000000    
    212 O     c    0.135805    0.684780    0.811056     0.86902    1.000000    
    213 Si    c    0.033936    0.764942    0.351781     4.00000    1.000000    
    214 Si    c    0.721957    0.411150    0.336838     4.00000    1.000000    
    215 Si    c    0.360270    0.775980    0.198853     4.00000    1.000000    
    216 Si    c    0.227822    0.907974    0.795375     4.00000    1.000000    
    217 Si    c    0.693224    0.172487    0.426945     4.00000    1.000000    
    218 O     c    0.941059    0.728417    0.348017     0.86902    1.000000    
    219 O     c    0.034041    0.849897    0.391533     0.86902    1.000000    
    220 O     c    0.070393    0.781705    0.281231     0.86902    1.000000    
    221 O     c    0.088919    0.696489    0.388414     0.86902    1.000000    
    222 O     c    0.771490    0.381853    0.273770     0.86902    1.000000    
    223 O     c    0.772683    0.381752    0.399275     0.86902    1.000000    
    224 O     c    0.715907    0.510076    0.339819     0.86902    1.000000    
    225 O     c    0.316310    0.865285    0.190630     0.86902    1.000000    
    226 Si    c    0.736149    0.531471    0.851781     4.00000    1.000000    
    227 Si    c    0.089941    0.219492    0.836838     4.00000    1.000000    
    228 Si    c    0.725110    0.857806    0.698853     4.00000    1.000000    
    229 Si    c    0.593116    0.725358    0.295375     4.00000    1.000000    
    230 Si    c    0.328603    0.190759    0.926945     4.00000    1.000000    
    231 O     c    0.772673    0.438594    0.848018     0.86902    1.000000    
    232 O     c    0.651193    0.531576    0.891533     0.86902    1.000000    
    233 O     c    0.719385    0.567928    0.781231     0.86902    1.000000    
    234 O     c    0.804602    0.586455    0.888414     0.86902    1.000000    
    235 O     c    0.119237    0.269025    0.773770     0.86902    1.000000    
    236 O     c    0.119338    0.270219    0.899275     0.86902    1.000000    
    237 O     c    0.991015    0.213442    0.839819     0.86902    1.000000    
    238 O     c    0.635805    0.813846    0.690630     0.86902    1.000000    
    239 Si    c    0.969619    0.233684    0.351781     4.00000    1.000000    
    240 Si    c    0.281598    0.587476    0.336838     4.00000    1.000000    
    241 Si    c    0.643285    0.222645    0.198853     4.00000    1.000000    
    242 Si    c    0.775733    0.090651    0.795375     4.00000    1.000000    
    243 Si    c    0.310331    0.826139    0.426945     4.00000    1.000000    
    244 O     c    0.062496    0.270209    0.348017     0.86902    1.000000    
    245 O     c    0.969514    0.148729    0.391533     0.86902    1.000000    
    246 O     c    0.933162    0.216921    0.281231     0.86902    1.000000    
    247 O     c    0.914636    0.302137    0.388414     0.86902    1.000000    
    248 O     c    0.232065    0.616772    0.273770     0.86902    1.000000    
    249 O     c    0.230872    0.616873    0.399275     0.86902    1.000000    
    250 O     c    0.287648    0.488550    0.339819     0.86902    1.000000    
    251 O     c    0.687245    0.133340    0.190630     0.86902    1.000000    
    252 Si    c    0.267406    0.467155    0.851781     4.00000    1.000000    
    253 Si    c    0.913614    0.779134    0.836838     4.00000    1.000000    
    254 Si    c    0.278445    0.140820    0.698853     4.00000    1.000000    
    255 Si    c    0.410439    0.273268    0.295375     4.00000    1.000000    
    256 Si    c    0.674952    0.807867    0.926945     4.00000    1.000000    
    257 O     c    0.230882    0.560032    0.848018     0.86902    1.000000    
    258 O     c    0.352362    0.467049    0.891533     0.86902    1.000000    
    259 O     c    0.284170    0.430697    0.781231     0.86902    1.000000    
    260 O     c    0.198953    0.412171    0.888414     0.86902    1.000000    
    261 O     c    0.884318    0.729600    0.773770     0.86902    1.000000    
    262 O     c    0.884217    0.728407    0.899275     0.86902    1.000000    
    263 O     c    0.012540    0.785184    0.839819     0.86902    1.000000    
    264 O     c    0.367750    0.184780    0.690630     0.86902    1.000000    
    265 O     s    0.562496 *  0.228417 *  0.848018 *  -2.86902    1.000000    
    266 O     s    0.469514 *  0.349897 *  0.891533 *  -2.86902    1.000000    
    267 O     s    0.433162 *  0.281705 *  0.781231 *  -2.86902    1.000000    
    268 O     s    0.414636 *  0.196489 *  0.888414 *  -2.86902    1.000000    
    269 O     s    0.732065 *  0.881853 *  0.773770 *  -2.86902    1.000000    
    270 O     s    0.730872 *  0.881752 *  0.899275 *  -2.86902    1.000000    
    271 O     s    0.787648 *  0.010076 *  0.839819 *  -2.86902    1.000000    
    272 O     s    0.187245 *  0.365285 *  0.690630 *  -2.86902    1.000000    
    273 O     s    0.873737 *  0.871272 *  0.836924 *  -2.86902    1.000000    
    274 O     s    0.204989 *  0.202524 *  0.678320 *  -2.86902    1.000000    
    275 O     s    0.348384 *  0.345920 *  0.314690 *  -2.86902    1.000000    
    276 O     s    0.722460 *  0.719995 *  0.918837 *  -2.86902    1.000000    
    277 O     s    0.909280 *  0.091811 *  0.500843 *  -2.86902    1.000000    
    278 O     s    0.001778 *  0.999313 *  0.577383 *  -2.86902    1.000000    
    279 O     s    0.831478 *  0.653815 *  0.000843 *  -2.86902    1.000000    
    280 O     s    0.272673 *  0.060032 *  0.348017 *  -2.86902    1.000000    
    281 O     s    0.151193 *  0.967049 *  0.391533 *  -2.86902    1.000000    
    282 O     s    0.219385 *  0.930697 *  0.281231 *  -2.86902    1.000000    
    283 O     s    0.304602 *  0.912171 *  0.388414 *  -2.86902    1.000000    
    284 O     s    0.619237 *  0.229600 *  0.273770 *  -2.86902    1.000000    
    285 O     s    0.619338 *  0.228407 *  0.399275 *  -2.86902    1.000000    
    286 O     s    0.491015 *  0.285184 *  0.339819 *  -2.86902    1.000000    
    287 O     s    0.135805 *  0.684780 *  0.190630 *  -2.86902    1.000000    
    288 O     s    0.629818 *  0.371272 *  0.336924 *  -2.86902    1.000000    
    289 O     s    0.298566 *  0.702524 *  0.178320 *  -2.86902    1.000000    
    290 O     s    0.155171 *  0.845920 *  0.814690 *  -2.86902    1.000000    
    291 O     s    0.781095 *  0.219995 *  0.418837 *  -2.86902    1.000000    
    292 O     s    0.409280 *  0.406815 *  0.000843 *  -2.86902    1.000000    
    293 O     s    0.501778 *  0.499313 *  0.077383 *  -2.86902    1.000000    
    294 O     s    0.847275 *  0.329014 *  0.500843 *  -2.86902    1.000000    
    295 O     s    0.441059 *  0.770209 *  0.848018 *  -2.86902    1.000000    
    296 O     s    0.534041 *  0.648729 *  0.891533 *  -2.86902    1.000000    
    297 O     s    0.570393 *  0.716921 *  0.781231 *  -2.86902    1.000000    
    298 O     s    0.588919 *  0.802137 *  0.888414 *  -2.86902    1.000000    
    299 O     s    0.271490 *  0.116772 *  0.773770 *  -2.86902    1.000000    
    300 O     s    0.272683 *  0.116873 *  0.899275 *  -2.86902    1.000000    
    301 O     s    0.215907 *  0.988550 *  0.839819 *  -2.86902    1.000000    
    302 O     s    0.816310 *  0.633340 *  0.690630 *  -2.86902    1.000000    
    303 O     s    0.129818 *  0.127353 *  0.836924 *  -2.86902    1.000000    
    304 O     s    0.798566 *  0.796102 *  0.678320 *  -2.86902    1.000000    
    305 O     s    0.655171 *  0.652706 *  0.314690 *  -2.86902    1.000000    
    306 O     s    0.281095 *  0.278630 *  0.918837 *  -2.86902    1.000000    
    307 O     s    0.094275 *  0.906815 *  0.500843 *  -2.86902    1.000000    
    308 O     s    0.172077 *  0.344810 *  0.000843 *  -2.86902    1.000000    
    309 O     s    0.730882 *  0.938594 *  0.348017 *  -2.86902    1.000000    
    310 O     s    0.852362 *  0.031576 *  0.391533 *  -2.86902    1.000000    
    311 O     s    0.784170 *  0.067928 *  0.281231 *  -2.86902    1.000000    
    312 O     s    0.698953 *  0.086455 *  0.388414 *  -2.86902    1.000000    
    313 O     s    0.384318 *  0.769025 *  0.273770 *  -2.86902    1.000000    
    314 O     s    0.384217 *  0.770219 *  0.399275 *  -2.86902    1.000000    
    315 O     s    0.512540 *  0.713442 *  0.339819 *  -2.86902    1.000000    
    316 O     s    0.867750 *  0.313846 *  0.190630 *  -2.86902    1.000000    
    317 O     s    0.373737 *  0.627353 *  0.336924 *  -2.86902    1.000000    
    318 O     s    0.704989 *  0.296101 *  0.178320 *  -2.86902    1.000000    
    319 O     s    0.848384 *  0.152706 *  0.814690 *  -2.86902    1.000000    
    320 O     s    0.222460 *  0.778631 *  0.418837 *  -2.86902    1.000000    
    321 O     s    0.594275 *  0.591811 *  0.000843 *  -2.86902    1.000000    
    322 O     s    0.156280 *  0.669612 *  0.500843 *  -2.86902    1.000000    
    323 O     s    0.062496 *  0.270209 *  0.653669 *  -2.86902    1.000000    
    324 O     s    0.969514 *  0.148729 *  0.610153 *  -2.86902    1.000000    
    325 O     s    0.933162 *  0.216921 *  0.720455 *  -2.86902    1.000000    
    326 O     s    0.914636 *  0.302137 *  0.613272 *  -2.86902    1.000000    
    327 O     s    0.232065 *  0.616772 *  0.727916 *  -2.86902    1.000000    
    328 O     s    0.230872 *  0.616873 *  0.602411 *  -2.86902    1.000000    
    329 O     s    0.287648 *  0.488550 *  0.661867 *  -2.86902    1.000000    
    330 O     s    0.687245 *  0.133340 *  0.811056 *  -2.86902    1.000000    
    331 O     s    0.373737 *  0.627353 *  0.664763 *  -2.86902    1.000000    
    332 O     s    0.704989 *  0.296101 *  0.823366 *  -2.86902    1.000000    
    333 O     s    0.848384 *  0.152706 *  0.186996 *  -2.86902    1.000000    
    334 O     s    0.222460 *  0.778631 *  0.582850 *  -2.86902    1.000000    
    335 O     s    0.501778 *  0.499313 *  0.924303 *  -2.86902    1.000000    
    336 O     s    0.331478 *  0.844810 *  0.500843 *  -2.86902    1.000000    
    337 O     s    0.230882 *  0.560032 *  0.153669 *  -2.86902    1.000000    
    338 O     s    0.352362 *  0.467049 *  0.110153 *  -2.86902    1.000000    
    339 O     s    0.284170 *  0.430697 *  0.220455 *  -2.86902    1.000000    
    340 O     s    0.198953 *  0.412171 *  0.113272 *  -2.86902    1.000000    
    341 O     s    0.884318 *  0.729600 *  0.227916 *  -2.86902    1.000000    
    342 O     s    0.884217 *  0.728407 *  0.102411 *  -2.86902    1.000000    
    343 O     s    0.012540 *  0.785184 *  0.161867 *  -2.86902    1.000000    
    344 O     s    0.367750 *  0.184780 *  0.311056 *  -2.86902    1.000000    
    345 O     s    0.873737 *  0.871272 *  0.164763 *  -2.86902    1.000000    
    346 O     s    0.204989 *  0.202524 *  0.323366 *  -2.86902    1.000000    
    347 O     s    0.348384 *  0.345920 *  0.686997 *  -2.86902    1.000000    
    348 O     s    0.722460 *  0.719995 *  0.082850 *  -2.86902    1.000000    
    349 O     s    0.001778 *  0.999313 *  0.424303 *  -2.86902    1.000000    
    350 O     s    0.656280 *  0.829014 *  0.000843 *  -2.86902    1.000000    
    351 O     s    0.941059 *  0.728417 *  0.653669 *  -2.86902    1.000000    
    352 O     s    0.034041 *  0.849897 *  0.610153 *  -2.86902    1.000000    
    353 O     s    0.070393 *  0.781705 *  0.720455 *  -2.86902    1.000000    
    354 O     s    0.088919 *  0.696489 *  0.613272 *  -2.86902    1.000000    
    355 O     s    0.771490 *  0.381853 *  0.727916 *  -2.86902    1.000000    
    356 O     s    0.772683 *  0.381752 *  0.602411 *  -2.86902    1.000000    
    357 O     s    0.715907 *  0.510076 *  0.661867 *  -2.86902    1.000000    
    358 O     s    0.316310 *  0.865285 *  0.811056 *  -2.86902    1.000000    
    359 O     s    0.629818 *  0.371272 *  0.664763 *  -2.86902    1.000000    
    360 O     s    0.298566 *  0.702524 *  0.823366 *  -2.86902    1.000000    
    361 O     s    0.155171 *  0.845920 *  0.186996 *  -2.86902    1.000000    
    362 O     s    0.781095 *  0.219995 *  0.582850 *  -2.86902    1.000000    
    363 O     s    0.672077 *  0.153815 *  0.500843 *  -2.86902    1.000000    
    364 O     s    0.772673 *  0.438594 *  0.153669 *  -2.86902    1.000000    
    365 O     s    0.651193 *  0.531576 *  0.110153 *  -2.86902    1.000000    
    366 O     s    0.719385 *  0.567928 *  0.220455 *  -2.86902    1.000000    
    367 O     s    0.804602 *  0.586455 *  0.113272 *  -2.86902    1.000000    
    368 O     s    0.119237 *  0.269025 *  0.227916 *  -2.86902    1.000000    
    369 O     s    0.119338 *  0.270219 *  0.102411 *  -2.86902    1.000000    
    370 O     s    0.991015 *  0.213442 *  0.161867 *  -2.86902    1.000000    
    371 O     s    0.635805 *  0.813846 *  0.311056 *  -2.86902    1.000000    
    372 O     s    0.129818 *  0.127353 *  0.164763 *  -2.86902    1.000000    
    373 O     s    0.798566 *  0.796102 *  0.323366 *  -2.86902    1.000000    
    374 O     s    0.655171 *  0.652706 *  0.686997 *  -2.86902    1.000000    
    375 O     s    0.281095 *  0.278630 *  0.082850 *  -2.86902    1.000000    
    376 O     s    0.347275 *  0.169612 *  0.000843 *  -2.86902    1.000000    
    377 O     s    0.441059 *  0.770209 *  0.153669 *  -2.86902    1.000000    
    378 O     s    0.534041 *  0.648729 *  0.110153 *  -2.86902    1.000000    
    379 O     s    0.570393 *  0.716921 *  0.220455 *  -2.86902    1.000000    
    380 O     s    0.588919 *  0.802137 *  0.113272 *  -2.86902    1.000000    
    381 O     s    0.271490 *  0.116772 *  0.227916 *  -2.86902    1.000000    
    382 O     s    0.272683 *  0.116873 *  0.102411 *  -2.86902    1.000000    
    383 O     s    0.215907 *  0.988550 *  0.161867 *  -2.86902    1.000000    
    384 O     s    0.816310 *  0.633340 *  0.311056 *  -2.86902    1.000000    
    385 O     s    0.730882 *  0.938594 *  0.653669 *  -2.86902    1.000000    
    386 O     s    0.852362 *  0.031576 *  0.610153 *  -2.86902    1.000000    
    387 O     s    0.784170 *  0.067928 *  0.720455 *  -2.86902    1.000000    
    388 O     s    0.698953 *  0.086455 *  0.613272 *  -2.86902    1.000000    
    389 O     s    0.384318 *  0.769025 *  0.727916 *  -2.86902    1.000000    
    390 O     s    0.384217 *  0.770219 *  0.602411 *  -2.86902    1.000000    
    391 O     s    0.512540 *  0.713442 *  0.661867 *  -2.86902    1.000000    
    392 O     s    0.867750 *  0.313846 *  0.811056 *  -2.86902    1.000000    
    393 O     s    0.562496 *  0.228417 *  0.153669 *  -2.86902    1.000000    
    394 O     s    0.469514 *  0.349897 *  0.110153 *  -2.86902    1.000000    
    395 O     s    0.433162 *  0.281705 *  0.220455 *  -2.86902    1.000000    
    396 O     s    0.414636 *  0.196489 *  0.113272 *  -2.86902    1.000000    
    397 O     s    0.732065 *  0.881853 *  0.227916 *  -2.86902    1.000000    
    398 O     s    0.730872 *  0.881752 *  0.102411 *  -2.86902    1.000000    
    399 O     s    0.787648 *  0.010076 *  0.161867 *  -2.86902    1.000000    
    400 O     s    0.187245 *  0.365285 *  0.311056 *  -2.86902    1.000000    
    401 O     s    0.272673 *  0.060032 *  0.653669 *  -2.86902    1.000000    
    402 O     s    0.151193 *  0.967049 *  0.610153 *  -2.86902    1.000000    
    403 O     s    0.219385 *  0.930697 *  0.720455 *  -2.86902    1.000000    
    404 O     s    0.304602 *  0.912171 *  0.613272 *  -2.86902    1.000000    
    405 O     s    0.619237 *  0.229600 *  0.727916 *  -2.86902    1.000000    
    406 O     s    0.619338 *  0.228407 *  0.602411 *  -2.86902    1.000000    
    407 O     s    0.491015 *  0.285184 *  0.661867 *  -2.86902    1.000000    
    408 O     s    0.135805 *  0.684780 *  0.811056 *  -2.86902    1.000000    
    409 O     s    0.941059 *  0.728417 *  0.348017 *  -2.86902    1.000000    
    410 O     s    0.034041 *  0.849897 *  0.391533 *  -2.86902    1.000000    
    411 O     s    0.070393 *  0.781705 *  0.281231 *  -2.86902    1.000000    
    412 O     s    0.088919 *  0.696489 *  0.388414 *  -2.86902    1.000000    
    413 O     s    0.771490 *  0.381853 *  0.273770 *  -2.86902    1.000000    
    414 O     s    0.772683 *  0.381752 *  0.399275 *  -2.86902    1.000000    
    415 O     s    0.715907 *  0.510076 *  0.339819 *  -2.86902    1.000000    
    416 O     s    0.316310 *  0.865285 *  0.190630 *  -2.86902    1.000000    
    417 O     s    0.772673 *  0.438594 *  0.848018 *  -2.86902    1.000000    
    418 O     s    0.651193 *  0.531576 *  0.891533 *  -2.86902    1.000000    
    419 O     s    0.719385 *  0.567928 *  0.781231 *  -2.86902    1.000000    
    420 O     s    0.804602 *  0.586455 *  0.888414 *  -2.86902    1.000000    
    421 O     s    0.119237 *  0.269025 *  0.773770 *  -2.86902    1.000000    
    422 O     s    0.119338 *  0.270219 *  0.899275 *  -2.86902    1.000000    
    423 O     s    0.991015 *  0.213442 *  0.839819 *  -2.86902    1.000000    
    424 O     s    0.635805 *  0.813846 *  0.690630 *  -2.86902    1.000000    
    425 O     s    0.062496 *  0.270209 *  0.348017 *  -2.86902    1.000000    
    426 O     s    0.969514 *  0.148729 *  0.391533 *  -2.86902    1.000000    
    427 O     s    0.933162 *  0.216921 *  0.281231 *  -2.86902    1.000000    
    428 O     s    0.914636 *  0.302137 *  0.388414 *  -2.86902    1.000000    
    429 O     s    0.232065 *  0.616772 *  0.273770 *  -2.86902    1.000000    
    430 O     s    0.230872 *  0.616873 *  0.399275 *  -2.86902    1.000000    
    431 O     s    0.287648 *  0.488550 *  0.339819 *  -2.86902    1.000000    
    432 O     s    0.687245 *  0.133340 *  0.190630 *  -2.86902    1.000000    
    433 O     s    0.230882 *  0.560032 *  0.848018 *  -2.86902    1.000000    
    434 O     s    0.352362 *  0.467049 *  0.891533 *  -2.86902    1.000000    
    435 O     s    0.284170 *  0.430697 *  0.781231 *  -2.86902    1.000000    
    436 O     s    0.198953 *  0.412171 *  0.888414 *  -2.86902    1.000000    
    437 O     s    0.884318 *  0.729600 *  0.773770 *  -2.86902    1.000000    
    438 O     s    0.884217 *  0.728407 *  0.899275 *  -2.86902    1.000000    
    439 O     s    0.012540 *  0.785184 *  0.839819 *  -2.86902    1.000000    
    440 O     s    0.367750 *  0.184780 *  0.690630 *  -2.86902    1.000000    
--------------------------------------------------------------------------------



********************************************************************************
*  General input information                                                   *
********************************************************************************

  Species output for all configurations : 

--------------------------------------------------------------------------------
  Species    Type    Atomic    Atomic    Charge       Radii (Angs)     Library
                     Number     Mass       (e)     Cova   Ionic  VDW   Symbol
--------------------------------------------------------------------------------
    O        Core        8      16.00   0.869020   0.730  0.000  1.360 O        
    O        Shell       8       0.00  -2.869020   0.730  0.000  0.000 O        
    Si       Core       14      28.09   4.000000   1.200  0.000  2.100 Si       
--------------------------------------------------------------------------------


  Lattice summation method               =    Ewald          (3-D)
                                         =    Parry          (2-D)
                                         =    Saunders et al (1-D)
  Accuracy factor for lattice sums       =   12.000


  Analytic derivatives to be used

  Time limit = Infinity

  Maximum range for interatomic potentials =    100000.000000 Angstroms

  General interatomic potentials :

--------------------------------------------------------------------------------
Atom  Types   Potential      Parameter       Value         Units   Cutoffs(Ang)
  1     2                                                            Min /  Max 
--------------------------------------------------------------------------------
Si   c O    s Buckingham    Buckingham A     1283.9070    eV        0.000 10.000
                            Buckingham rho  0.32052000    Ang       
                            Buckingham C     10.661580    eV*Ang^6  
--------------------------------------------------------------------------------
O    s O    s Buckingham    Buckingham A     22764.000    eV        0.000 12.000
                            Buckingham rho  0.14900000    Ang       
                            Buckingham C     27.879000    eV*Ang^6  
--------------------------------------------------------------------------------
O    c O    s Spring (c-s)  Spring k 2       74.920000    eV*Ang^-2 0.000  1.100
                            Spring k 4       0.0000000    eV*Ang^-4 
--------------------------------------------------------------------------------

  General Three-body potentials :

--------------------------------------------------------------------------------
  Atoms       Potential      Parameter       Value         Units   Cutoffs(Ang)
  1 / 2 / 3                                                          Min /  Max 
--------------------------------------------------------------------------------
Si    core    Harmonic      Three-body cnst  2.0972400    eV*rad^-2 0.000  1.900
O     shel                  Three-body angl  109.47000    degrees   0.000  1.900
O     shel                  Three-body k4    0.0000000    eV*rad^-4 0.000  3.500
                            Three-body k3    0.0000000    eV*rad^-3 
--------------------------------------------------------------------------------
Si    core    Harmonic      Three-body cnst  2.0972400    eV*rad^-2 0.000  1.900
O     shel                  Three-body angl  109.47000    degrees   0.000  1.900
õ(    shel                  Three-body k4    0.0000000    eV*rad^-4 0.000  3.500
                            Three-body k3    0.0000000    eV*rad^-3 
--------------------------------------------------------------------------------
Si    core    Harmonic      Three-body cnst  2.0972400    eV*rad^-2 0.000  1.900
õ(    shel                  Three-body angl  109.47000    degrees   0.000  1.900
õ(    shel                  Three-body k4    0.0000000    eV*rad^-4 0.000  3.500
                            Three-body k3    0.0000000    eV*rad^-3 
--------------------------------------------------------------------------------

********************************************************************************
*  Output for configuration   1 : ReferenceDataBase/8317769_111                *
********************************************************************************


  Components of energy : 

--------------------------------------------------------------------------------
  Interatomic potentials     =        2768.73840354 eV    
  Three-body potentials      =           0.50657920 eV    
  Monopole - monopole (real) =      -11065.86955907 eV    
  Monopole - monopole (recip)=       -2880.21844069 eV    
  Monopole - monopole (total)=      -13946.08799976 eV    
--------------------------------------------------------------------------------
  Total lattice energy       =      -11176.84301702 eV    
--------------------------------------------------------------------------------
  Total lattice energy       =        -1078394.4974 kJ/(mole unit cells)
--------------------------------------------------------------------------------


  Number of variables =      528

  Maximum number of calculations  =           500
  Maximum Hessian update interval =            10
  Maximum step size               =   0.100000000
  Maximum parameter tolerance     =   0.000010000
  Maximum function  tolerance     =   0.000010000
  Maximum gradient  tolerance     =   0.001000000
  Maximum gradient  component     =   0.010000000

  Newton-Raphson optimiser to be used

  BFGS hessian update to be used

  Lower half triangular hessian to be used

  Minimiser to switch to RFO
  When gradient norm is less than     0.080000

  Switch max step size to       0.30000000 when gnorm is less than     0.005000

  Shell only optimisation

  Dumpfile to be written after every cycle

  Start of bulk optimisation :

  Cycle:      0 Energy:    -11176.843017  Gnorm:      6.749081  CPU:    1.727
  ** Hessian calculated **
  Cycle:      1 Energy:    -11305.717402  Gnorm:      1.286909  CPU:    2.931
  ** Hessian calculated **
  Cycle:      2 Energy:    -11309.775710  Gnorm:      0.513932  CPU:    5.267
  Cycle:      3 Energy:    -11310.353300  Gnorm:      0.256611  CPU:    6.067
  Cycle:      4 Energy:    -11310.497241  Gnorm:      0.128242  CPU:    6.867
  Cycle:      5 Energy:    -11310.533186  Gnorm:      0.064106  CPU:    7.679
  ** Hessian has required structure
  ** Hessian has required structure
  Cycle:      6 Energy:    -11310.542167  Gnorm:      0.032051  CPU:   10.439
  ** Hessian has required structure
  Cycle:      7 Energy:    -11310.544412  Gnorm:      0.016024  CPU:   11.530
  ** Hessian has required structure
  Cycle:      8 Energy:    -11310.544973  Gnorm:      0.008012  CPU:   12.616
  ** Hessian has required structure
  Cycle:      9 Energy:    -11310.545068  Gnorm:      0.005608  CPU:   13.458
  ** Hessian has required structure
  Cycle:     10 Energy:    -11310.545115  Gnorm:      0.003926  CPU:   14.302
  ** Hessian has required structure
  Cycle:     11 Energy:    -11310.545158  Gnorm:      0.000729  CPU:   15.383
  ** Hessian has required structure


  **** Optimisation achieved ****


  Final energy =  -11310.54515996 eV      
  Final Gnorm  =       0.00007288

  Components of energy : 

--------------------------------------------------------------------------------
  Interatomic potentials     =        3076.89275445 eV    
  Three-body potentials      =           1.74811566 eV    
  Monopole - monopole (real) =      -10308.54922807 eV    
  Monopole - monopole (recip)=       -4080.63680200 eV    
  Monopole - monopole (total)=      -14389.18603006 eV    
--------------------------------------------------------------------------------
  Total lattice energy       =      -11310.54515996 eV    
--------------------------------------------------------------------------------
  Total lattice energy       =        -1091294.7104 kJ/(mole unit cells)
--------------------------------------------------------------------------------

  Final fractional coordinates of atoms :

--------------------------------------------------------------------------------
   No.  Atomic        x           y          z          Radius
        Label       (Frac)      (Frac)     (Frac)       (Angs) 
--------------------------------------------------------------------------------
     1  Si    c     0.469619    0.264942    0.851781    0.000000
     2  Si    c     0.781598    0.911150    0.836838    0.000000
     3  Si    c     0.143285    0.275980    0.698853    0.000000
     4  Si    c     0.275733    0.407974    0.295375    0.000000
     5  Si    c     0.810331    0.672487    0.926945    0.000000
     6  O     c     0.562496    0.228417    0.848018    0.000000
     7  O     c     0.469514    0.349897    0.891533    0.000000
     8  O     c     0.433162    0.281705    0.781231    0.000000
     9  O     c     0.414636    0.196489    0.888414    0.000000
    10  O     c     0.732065    0.881853    0.773770    0.000000
    11  O     c     0.730872    0.881752    0.899275    0.000000
    12  O     c     0.787648    0.010076    0.839819    0.000000
    13  O     c     0.187245    0.365285    0.690630    0.000000
    14  Si    c     0.932434    0.068656    0.574910    0.000000
    15  O     c     0.873737    0.871272    0.836924    0.000000
    16  O     c     0.204989    0.202524    0.678320    0.000000
    17  O     c     0.348384    0.345920    0.314690    0.000000
    18  O     c     0.722460    0.719995    0.918837    0.000000
    19  O     c     0.909280    0.091811    0.500843    0.000000
    20  O     c     0.001778    0.999313    0.577383    0.000000
    21  O     c     0.831478    0.653815    0.000843    0.000000
    22  Si    c     0.236149    0.967155    0.351781    0.000000
    23  Si    c     0.589941    0.279134    0.336838    0.000000
    24  Si    c     0.225110    0.640820    0.198853    0.000000
    25  Si    c     0.093116    0.773268    0.795375    0.000000
    26  Si    c     0.828603    0.307867    0.426945    0.000000
    27  O     c     0.272673    0.060032    0.348017    0.000000
    28  O     c     0.151193    0.967049    0.391533    0.000000
    29  O     c     0.219385    0.930697    0.281231    0.000000
    30  O     c     0.304602    0.912171    0.388414    0.000000
    31  O     c     0.619237    0.229600    0.273770    0.000000
    32  O     c     0.619338    0.228407    0.399275    0.000000
    33  O     c     0.491015    0.285184    0.339819    0.000000
    34  O     c     0.135805    0.684780    0.190630    0.000000
    35  Si    c     0.432434    0.429969    0.074910    0.000000
    36  O     c     0.629818    0.371272    0.336924    0.000000
    37  O     c     0.298566    0.702524    0.178320    0.000000
    38  O     c     0.155171    0.845920    0.814690    0.000000
    39  O     c     0.781095    0.219995    0.418837    0.000000
    40  O     c     0.409280    0.406815    0.000843    0.000000
    41  O     c     0.501778    0.499313    0.077383    0.000000
    42  O     c     0.847275    0.329014    0.500843    0.000000
    43  Si    c     0.533936    0.733684    0.851781    0.000000
    44  Si    c     0.221957    0.087476    0.836838    0.000000
    45  Si    c     0.860270    0.722645    0.698853    0.000000
    46  Si    c     0.727822    0.590651    0.295375    0.000000
    47  Si    c     0.193224    0.326139    0.926945    0.000000
    48  O     c     0.441059    0.770209    0.848018    0.000000
    49  O     c     0.534041    0.648729    0.891533    0.000000
    50  O     c     0.570393    0.716921    0.781231    0.000000
    51  O     c     0.588919    0.802137    0.888414    0.000000
    52  O     c     0.271490    0.116772    0.773770    0.000000
    53  O     c     0.272683    0.116873    0.899275    0.000000
    54  O     c     0.215907    0.988550    0.839819    0.000000
    55  O     c     0.816310    0.633340    0.690630    0.000000
    56  Si    c     0.071121    0.929969    0.574910    0.000000
    57  O     c     0.129818    0.127353    0.836924    0.000000
    58  O     c     0.798566    0.796102    0.678320    0.000000
    59  O     c     0.655171    0.652706    0.314690    0.000000
    60  O     c     0.281095    0.278630    0.918837    0.000000
    61  O     c     0.094275    0.906815    0.500843    0.000000
    62  O     c     0.172077    0.344810    0.000843    0.000000
    63  Si    c     0.767406    0.031471    0.351781    0.000000
    64  Si    c     0.413614    0.719492    0.336838    0.000000
    65  Si    c     0.778445    0.357806    0.198853    0.000000
    66  Si    c     0.910439    0.225358    0.795375    0.000000
    67  Si    c     0.174952    0.690759    0.426945    0.000000
    68  O     c     0.730882    0.938594    0.348017    0.000000
    69  O     c     0.852362    0.031576    0.391533    0.000000
    70  O     c     0.784170    0.067928    0.281231    0.000000
    71  O     c     0.698953    0.086455    0.388414    0.000000
    72  O     c     0.384318    0.769025    0.273770    0.000000
    73  O     c     0.384217    0.770219    0.399275    0.000000
    74  O     c     0.512540    0.713442    0.339819    0.000000
    75  O     c     0.867750    0.313846    0.190630    0.000000
    76  Si    c     0.571121    0.568656    0.074910    0.000000
    77  O     c     0.373737    0.627353    0.336924    0.000000
    78  O     c     0.704989    0.296101    0.178320    0.000000
    79  O     c     0.848384    0.152706    0.814690    0.000000
    80  O     c     0.222460    0.778631    0.418837    0.000000
    81  O     c     0.594275    0.591811    0.000843    0.000000
    82  O     c     0.156280    0.669612    0.500843    0.000000
    83  Si    c     0.969619    0.233684    0.649906    0.000000
    84  Si    c     0.281598    0.587476    0.664848    0.000000
    85  Si    c     0.643285    0.222646    0.802833    0.000000
    86  Si    c     0.775733    0.090651    0.206311    0.000000
    87  Si    c     0.310331    0.826139    0.574742    0.000000
    88  O     c     0.062496    0.270209    0.653669    0.000000
    89  O     c     0.969514    0.148729    0.610153    0.000000
    90  O     c     0.933162    0.216921    0.720455    0.000000
    91  O     c     0.914636    0.302137    0.613272    0.000000
    92  O     c     0.232065    0.616772    0.727916    0.000000
    93  O     c     0.230872    0.616873    0.602411    0.000000
    94  O     c     0.287648    0.488550    0.661867    0.000000
    95  O     c     0.687245    0.133340    0.811056    0.000000
    96  Si    c     0.432434    0.429969    0.926777    0.000000
    97  O     c     0.373737    0.627353    0.664763    0.000000
    98  O     c     0.704989    0.296101    0.823366    0.000000
    99  O     c     0.848384    0.152706    0.186996    0.000000
   100  O     c     0.222460    0.778631    0.582850    0.000000
   101  O     c     0.501778    0.499313    0.924303    0.000000
   102  O     c     0.331478    0.844810    0.500843    0.000000
   103  Si    c     0.267406    0.467155    0.149906    0.000000
   104  Si    c     0.913614    0.779134    0.164848    0.000000
   105  Si    c     0.278445    0.140820    0.302833    0.000000
   106  Si    c     0.410439    0.273268    0.706311    0.000000
   107  Si    c     0.674952    0.807867    0.074742    0.000000
   108  O     c     0.230882    0.560032    0.153669    0.000000
   109  O     c     0.352362    0.467049    0.110153    0.000000
   110  O     c     0.284170    0.430697    0.220455    0.000000
   111  O     c     0.198953    0.412171    0.113272    0.000000
   112  O     c     0.884318    0.729600    0.227916    0.000000
   113  O     c     0.884217    0.728407    0.102411    0.000000
   114  O     c     0.012540    0.785184    0.161867    0.000000
   115  O     c     0.367750    0.184780    0.311056    0.000000
   116  Si    c     0.071121    0.929969    0.426777    0.000000
   117  O     c     0.873737    0.871272    0.164763    0.000000
   118  O     c     0.204989    0.202524    0.323366    0.000000
   119  O     c     0.348384    0.345920    0.686997    0.000000
   120  O     c     0.722460    0.719995    0.082850    0.000000
   121  O     c     0.001778    0.999313    0.424303    0.000000
   122  O     c     0.656280    0.829014    0.000843    0.000000
   123  Si    c     0.033936    0.764942    0.649906    0.000000
   124  Si    c     0.721957    0.411150    0.664848    0.000000
   125  Si    c     0.360270    0.775980    0.802833    0.000000
   126  Si    c     0.227822    0.907974    0.206311    0.000000
   127  Si    c     0.693224    0.172487    0.574742    0.000000
   128  O     c     0.941059    0.728417    0.653669    0.000000
   129  O     c     0.034041    0.849897    0.610153    0.000000
   130  O     c     0.070393    0.781705    0.720455    0.000000
   131  O     c     0.088919    0.696489    0.613272    0.000000
   132  O     c     0.771490    0.381853    0.727916    0.000000
   133  O     c     0.772683    0.381752    0.602411    0.000000
   134  O     c     0.715907    0.510076    0.661867    0.000000
   135  O     c     0.316310    0.865285    0.811056    0.000000
   136  Si    c     0.571121    0.568656    0.926777    0.000000
   137  O     c     0.629818    0.371272    0.664763    0.000000
   138  O     c     0.298566    0.702524    0.823366    0.000000
   139  O     c     0.155171    0.845920    0.186996    0.000000
   140  O     c     0.781095    0.219995    0.582850    0.000000
   141  O     c     0.672077    0.153815    0.500843    0.000000
   142  Si    c     0.736149    0.531471    0.149906    0.000000
   143  Si    c     0.089941    0.219492    0.164848    0.000000
   144  Si    c     0.725110    0.857806    0.302833    0.000000
   145  Si    c     0.593116    0.725358    0.706311    0.000000
   146  Si    c     0.328603    0.190759    0.074742    0.000000
   147  O     c     0.772673    0.438594    0.153669    0.000000
   148  O     c     0.651193    0.531576    0.110153    0.000000
   149  O     c     0.719385    0.567928    0.220455    0.000000
   150  O     c     0.804602    0.586455    0.113272    0.000000
   151  O     c     0.119237    0.269025    0.227916    0.000000
   152  O     c     0.119338    0.270219    0.102411    0.000000
   153  O     c     0.991015    0.213442    0.161867    0.000000
   154  O     c     0.635805    0.813846    0.311056    0.000000
   155  Si    c     0.932434    0.068656    0.426777    0.000000
   156  O     c     0.129818    0.127353    0.164763    0.000000
   157  O     c     0.798566    0.796102    0.323366    0.000000
   158  O     c     0.655171    0.652706    0.686997    0.000000
   159  O     c     0.281095    0.278630    0.082850    0.000000
   160  O     c     0.347275    0.169612    0.000843    0.000000
   161  Si    c     0.533936    0.733684    0.149906    0.000000
   162  Si    c     0.221957    0.087476    0.164848    0.000000
   163  Si    c     0.860270    0.722645    0.302833    0.000000
   164  Si    c     0.727822    0.590651    0.706311    0.000000
   165  Si    c     0.193224    0.326139    0.074742    0.000000
   166  O     c     0.441059    0.770209    0.153669    0.000000
   167  O     c     0.534041    0.648729    0.110153    0.000000
   168  O     c     0.570393    0.716921    0.220455    0.000000
   169  O     c     0.588919    0.802137    0.113272    0.000000
   170  O     c     0.271490    0.116772    0.227916    0.000000
   171  O     c     0.272683    0.116873    0.102411    0.000000
   172  O     c     0.215907    0.988550    0.161867    0.000000
   173  O     c     0.816310    0.633340    0.311056    0.000000
   174  Si    c     0.767406    0.031471    0.649906    0.000000
   175  Si    c     0.413614    0.719492    0.664848    0.000000
   176  Si    c     0.778445    0.357806    0.802833    0.000000
   177  Si    c     0.910439    0.225358    0.206311    0.000000
   178  Si    c     0.174952    0.690759    0.574742    0.000000
   179  O     c     0.730882    0.938594    0.653669    0.000000
   180  O     c     0.852362    0.031576    0.610153    0.000000
   181  O     c     0.784170    0.067928    0.720455    0.000000
   182  O     c     0.698953    0.086455    0.613272    0.000000
   183  O     c     0.384318    0.769025    0.727916    0.000000
   184  O     c     0.384217    0.770219    0.602411    0.000000
   185  O     c     0.512540    0.713442    0.661867    0.000000
   186  O     c     0.867750    0.313846    0.811056    0.000000
   187  Si    c     0.469619    0.264942    0.149906    0.000000
   188  Si    c     0.781598    0.911150    0.164848    0.000000
   189  Si    c     0.143285    0.275980    0.302833    0.000000
   190  Si    c     0.275733    0.407974    0.706311    0.000000
   191  Si    c     0.810331    0.672487    0.074742    0.000000
   192  O     c     0.562496    0.228417    0.153669    0.000000
   193  O     c     0.469514    0.349897    0.110153    0.000000
   194  O     c     0.433162    0.281705    0.220455    0.000000
   195  O     c     0.414636    0.196489    0.113272    0.000000
   196  O     c     0.732065    0.881853    0.227916    0.000000
   197  O     c     0.730872    0.881752    0.102411    0.000000
   198  O     c     0.787648    0.010076    0.161867    0.000000
   199  O     c     0.187245    0.365285    0.311056    0.000000
   200  Si    c     0.236149    0.967155    0.649906    0.000000
   201  Si    c     0.589941    0.279134    0.664848    0.000000
   202  Si    c     0.225110    0.640820    0.802833    0.000000
   203  Si    c     0.093116    0.773268    0.206311    0.000000
   204  Si    c     0.828603    0.307867    0.574742    0.000000
   205  O     c     0.272673    0.060032    0.653669    0.000000
   206  O     c     0.151193    0.967049    0.610153    0.000000
   207  O     c     0.219385    0.930697    0.720455    0.000000
   208  O     c     0.304602    0.912171    0.613272    0.000000
   209  O     c     0.619237    0.229600    0.727916    0.000000
   210  O     c     0.619338    0.228407    0.602411    0.000000
   211  O     c     0.491015    0.285184    0.661867    0.000000
   212  O     c     0.135805    0.684780    0.811056    0.000000
   213  Si    c     0.033936    0.764942    0.351781    0.000000
   214  Si    c     0.721957    0.411150    0.336838    0.000000
   215  Si    c     0.360270    0.775980    0.198853    0.000000
   216  Si    c     0.227822    0.907974    0.795375    0.000000
   217  Si    c     0.693224    0.172487    0.426945    0.000000
   218  O     c     0.941059    0.728417    0.348017    0.000000
   219  O     c     0.034041    0.849897    0.391533    0.000000
   220  O     c     0.070393    0.781705    0.281231    0.000000
   221  O     c     0.088919    0.696489    0.388414    0.000000
   222  O     c     0.771490    0.381853    0.273770    0.000000
   223  O     c     0.772683    0.381752    0.399275    0.000000
   224  O     c     0.715907    0.510076    0.339819    0.000000
   225  O     c     0.316310    0.865285    0.190630    0.000000
   226  Si    c     0.736149    0.531471    0.851781    0.000000
   227  Si    c     0.089941    0.219492    0.836838    0.000000
   228  Si    c     0.725110    0.857806    0.698853    0.000000
   229  Si    c     0.593116    0.725358    0.295375    0.000000
   230  Si    c     0.328603    0.190759    0.926945    0.000000
   231  O     c     0.772673    0.438594    0.848018    0.000000
   232  O     c     0.651193    0.531576    0.891533    0.000000
   233  O     c     0.719385    0.567928    0.781231    0.000000
   234  O     c     0.804602    0.586455    0.888414    0.000000
   235  O     c     0.119237    0.269025    0.773770    0.000000
   236  O     c     0.119338    0.270219    0.899275    0.000000
   237  O     c     0.991015    0.213442    0.839819    0.000000
   238  O     c     0.635805    0.813846    0.690630    0.000000
   239  Si    c     0.969619    0.233684    0.351781    0.000000
   240  Si    c     0.281598    0.587476    0.336838    0.000000
   241  Si    c     0.643285    0.222645    0.198853    0.000000
   242  Si    c     0.775733    0.090651    0.795375    0.000000
   243  Si    c     0.310331    0.826139    0.426945    0.000000
   244  O     c     0.062496    0.270209    0.348017    0.000000
   245  O     c     0.969514    0.148729    0.391533    0.000000
   246  O     c     0.933162    0.216921    0.281231    0.000000
   247  O     c     0.914636    0.302137    0.388414    0.000000
   248  O     c     0.232065    0.616772    0.273770    0.000000
   249  O     c     0.230872    0.616873    0.399275    0.000000
   250  O     c     0.287648    0.488550    0.339819    0.000000
   251  O     c     0.687245    0.133340    0.190630    0.000000
   252  Si    c     0.267406    0.467155    0.851781    0.000000
   253  Si    c     0.913614    0.779134    0.836838    0.000000
   254  Si    c     0.278445    0.140820    0.698853    0.000000
   255  Si    c     0.410439    0.273268    0.295375    0.000000
   256  Si    c     0.674952    0.807867    0.926945    0.000000
   257  O     c     0.230882    0.560032    0.848018    0.000000
   258  O     c     0.352362    0.467049    0.891533    0.000000
   259  O     c     0.284170    0.430697    0.781231    0.000000
   260  O     c     0.198953    0.412171    0.888414    0.000000
   261  O     c     0.884318    0.729600    0.773770    0.000000
   262  O     c     0.884217    0.728407    0.899275    0.000000
   263  O     c     0.012540    0.785184    0.839819    0.000000
   264  O     c     0.367750    0.184780    0.690630    0.000000
   265  O     s     0.561335    0.231770    0.843371    0.000000
   266  O     s     0.465271    0.349279    0.891007    0.000000
   267  O     s     0.434814    0.278811    0.780768    0.000000
   268  O     s     0.411085    0.203435    0.888672    0.000000
   269  O     s     0.736870    0.882443    0.772447    0.000000
   270  O     s     0.730342    0.876679    0.895358    0.000000
   271  O     s     0.785619    0.007853    0.834467    0.000000
   272  O     s     0.191940    0.360222    0.693188    0.000000
   273  O     s     0.868219    0.865754    0.836873    0.000000
   274  O     s     0.206321    0.203857    0.682903    0.000000
   275  O     s     0.347091    0.344626    0.310185    0.000000
   276  O     s     0.726602    0.724137    0.920463    0.000000
   277  O     s     0.914130    0.086961    0.500843    0.000000
   278  O     s     0.001777    0.999313    0.576732    0.000000
   279  O     s     0.826573    0.658139    0.000843    0.000000
   280  O     s     0.269320    0.058871    0.343371    0.000000
   281  O     s     0.151812    0.962807    0.391007    0.000000
   282  O     s     0.222280    0.932349    0.280768    0.000000
   283  O     s     0.297655    0.908620    0.388672    0.000000
   284  O     s     0.618647    0.234405    0.272448    0.000000
   285  O     s     0.624411    0.227877    0.395358    0.000000
   286  O     s     0.493238    0.283154    0.334467    0.000000
   287  O     s     0.140868    0.689475    0.193188    0.000000
   288  O     s     0.635336    0.365754    0.336873    0.000000
   289  O     s     0.297234    0.703857    0.182903    0.000000
   290  O     s     0.156464    0.844626    0.810185    0.000000
   291  O     s     0.776953    0.224137    0.420463    0.000000
   292  O     s     0.414130    0.411665    0.000843    0.000000
   293  O     s     0.501777    0.499313    0.076732    0.000000
   294  O     s     0.842952    0.324108    0.500843    0.000000
   295  O     s     0.442220    0.766855    0.843371    0.000000
   296  O     s     0.538284    0.649347    0.891007    0.000000
   297  O     s     0.568741    0.719815    0.780768    0.000000
   298  O     s     0.592470    0.795190    0.888672    0.000000
   299  O     s     0.266685    0.116183    0.772447    0.000000
   300  O     s     0.273213    0.121946    0.895358    0.000000
   301  O     s     0.217937    0.990773    0.834467    0.000000
   302  O     s     0.811615    0.638404    0.693188    0.000000
   303  O     s     0.135336    0.132871    0.836873    0.000000
   304  O     s     0.797234    0.794769    0.682903    0.000000
   305  O     s     0.656464    0.653999    0.310185    0.000000
   306  O     s     0.276953    0.274489    0.920463    0.000000
   307  O     s     0.089425    0.911665    0.500843    0.000000
   308  O     s     0.176982    0.340487    0.000843    0.000000
   309  O     s     0.734235    0.939755    0.343371    0.000000
   310  O     s     0.851743    0.035819    0.391007    0.000000
   311  O     s     0.781275    0.066277    0.280768    0.000000
   312  O     s     0.705900    0.090006    0.388672    0.000000
   313  O     s     0.384908    0.764220    0.272448    0.000000
   314  O     s     0.379144    0.770748    0.395358    0.000000
   315  O     s     0.510317    0.715472    0.334467    0.000000
   316  O     s     0.862687    0.309151    0.193188    0.000000
   317  O     s     0.368219    0.632871    0.336873    0.000000
   318  O     s     0.706321    0.294769    0.182903    0.000000
   319  O     s     0.847091    0.153999    0.810185    0.000000
   320  O     s     0.226602    0.774489    0.420463    0.000000
   321  O     s     0.589425    0.586961    0.000843    0.000000
   322  O     s     0.160603    0.674518    0.500843    0.000000
   323  O     s     0.061335    0.266855    0.658316    0.000000
   324  O     s     0.965271    0.149347    0.610679    0.000000
   325  O     s     0.934814    0.219815    0.720918    0.000000
   326  O     s     0.911085    0.295190    0.613015    0.000000
   327  O     s     0.236870    0.616183    0.729239    0.000000
   328  O     s     0.230342    0.621946    0.606328    0.000000
   329  O     s     0.285618    0.490773    0.667220    0.000000
   330  O     s     0.691940    0.138404    0.808499    0.000000
   331  O     s     0.368219    0.632871    0.664813    0.000000
   332  O     s     0.706321    0.294769    0.818784    0.000000
   333  O     s     0.847091    0.153999    0.191502    0.000000
   334  O     s     0.226602    0.774489    0.581223    0.000000
   335  O     s     0.501777    0.499313    0.924954    0.000000
   336  O     s     0.326573    0.840487    0.500843    0.000000
   337  O     s     0.234235    0.558871    0.158316    0.000000
   338  O     s     0.351743    0.462807    0.110679    0.000000
   339  O     s     0.281275    0.432349    0.220918    0.000000
   340  O     s     0.205900    0.408620    0.113015    0.000000
   341  O     s     0.884908    0.734405    0.229239    0.000000
   342  O     s     0.879144    0.727877    0.106328    0.000000
   343  O     s     0.010317    0.783154    0.167220    0.000000
   344  O     s     0.362687    0.189475    0.308499    0.000000
   345  O     s     0.868219    0.865754    0.164813    0.000000
   346  O     s     0.206321    0.203857    0.318784    0.000000
   347  O     s     0.347091    0.344626    0.691502    0.000000
   348  O     s     0.726602    0.724137    0.081223    0.000000
   349  O     s     0.001778    0.999313    0.424954    0.000000
   350  O     s     0.660603    0.824108    0.000843    0.000000
   351  O     s     0.942220    0.731770    0.658316    0.000000
   352  O     s     0.038284    0.849279    0.610679    0.000000
   353  O     s     0.068741    0.778811    0.720918    0.000000
   354  O     s     0.092470    0.703435    0.613015    0.000000
   355  O     s     0.766685    0.382443    0.729239    0.000000
   356  O     s     0.773213    0.376679    0.606328    0.000000
   357  O     s     0.717937    0.507853    0.667220    0.000000
   358  O     s     0.311615    0.860222    0.808499    0.000000
   359  O     s     0.635336    0.365754    0.664813    0.000000
   360  O     s     0.297234    0.703857    0.818784    0.000000
   361  O     s     0.156464    0.844626    0.191502    0.000000
   362  O     s     0.776953    0.224137    0.581223    0.000000
   363  O     s     0.676982    0.158139    0.500843    0.000000
   364  O     s     0.769320    0.439755    0.158316    0.000000
   365  O     s     0.651812    0.535819    0.110679    0.000000
   366  O     s     0.722280    0.566277    0.220918    0.000000
   367  O     s     0.797655    0.590006    0.113015    0.000000
   368  O     s     0.118647    0.264220    0.229239    0.000000
   369  O     s     0.124411    0.270748    0.106328    0.000000
   370  O     s     0.993238    0.215472    0.167220    0.000000
   371  O     s     0.640868    0.809151    0.308499    0.000000
   372  O     s     0.135336    0.132871    0.164813    0.000000
   373  O     s     0.797234    0.794769    0.318784    0.000000
   374  O     s     0.656464    0.653999    0.691502    0.000000
   375  O     s     0.276953    0.274489    0.081223    0.000000
   376  O     s     0.342952    0.174518    0.000843    0.000000
   377  O     s     0.442220    0.766855    0.158316    0.000000
   378  O     s     0.538284    0.649347    0.110679    0.000000
   379  O     s     0.568741    0.719815    0.220918    0.000000
   380  O     s     0.592470    0.795190    0.113015    0.000000
   381  O     s     0.266685    0.116183    0.229239    0.000000
   382  O     s     0.273213    0.121946    0.106328    0.000000
   383  O     s     0.217937    0.990773    0.167220    0.000000
   384  O     s     0.811615    0.638404    0.308499    0.000000
   385  O     s     0.734235    0.939755    0.658316    0.000000
   386  O     s     0.851743    0.035819    0.610679    0.000000
   387  O     s     0.781275    0.066277    0.720918    0.000000
   388  O     s     0.705900    0.090006    0.613015    0.000000
   389  O     s     0.384908    0.764220    0.729239    0.000000
   390  O     s     0.379144    0.770748    0.606328    0.000000
   391  O     s     0.510317    0.715472    0.667220    0.000000
   392  O     s     0.862687    0.309151    0.808499    0.000000
   393  O     s     0.561335    0.231770    0.158316    0.000000
   394  O     s     0.465271    0.349279    0.110679    0.000000
   395  O     s     0.434814    0.278811    0.220918    0.000000
   396  O     s     0.411085    0.203435    0.113015    0.000000
   397  O     s     0.736870    0.882443    0.229239    0.000000
   398  O     s     0.730342    0.876679    0.106328    0.000000
   399  O     s     0.785618    0.007853    0.167220    0.000000
   400  O     s     0.191940    0.360222    0.308499    0.000000
   401  O     s     0.269320    0.058871    0.658316    0.000000
   402  O     s     0.151812    0.962807    0.610679    0.000000
   403  O     s     0.222280    0.932349    0.720918    0.000000
   404  O     s     0.297655    0.908620    0.613015    0.000000
   405  O     s     0.618647    0.234405    0.729239    0.000000
   406  O     s     0.624411    0.227878    0.606328    0.000000
   407  O     s     0.493238    0.283154    0.667220    0.000000
   408  O     s     0.140868    0.689475    0.808499    0.000000
   409  O     s     0.942220    0.731770    0.343371    0.000000
   410  O     s     0.038284    0.849279    0.391007    0.000000
   411  O     s     0.068741    0.778811    0.280768    0.000000
   412  O     s     0.092470    0.703435    0.388672    0.000000
   413  O     s     0.766685    0.382443    0.272447    0.000000
   414  O     s     0.773213    0.376679    0.395358    0.000000
   415  O     s     0.717937    0.507853    0.334467    0.000000
   416  O     s     0.311615    0.860222    0.193188    0.000000
   417  O     s     0.769320    0.439755    0.843371    0.000000
   418  O     s     0.651812    0.535819    0.891007    0.000000
   419  O     s     0.722280    0.566277    0.780768    0.000000
   420  O     s     0.797655    0.590006    0.888672    0.000000
   421  O     s     0.118647    0.264220    0.772447    0.000000
   422  O     s     0.124411    0.270748    0.895358    0.000000
   423  O     s     0.993238    0.215472    0.834467    0.000000
   424  O     s     0.640868    0.809151    0.693188    0.000000
   425  O     s     0.061335    0.266855    0.343371    0.000000
   426  O     s     0.965271    0.149347    0.391007    0.000000
   427  O     s     0.934814    0.219815    0.280768    0.000000
   428  O     s     0.911085    0.295190    0.388672    0.000000
   429  O     s     0.236870    0.616183    0.272448    0.000000
   430  O     s     0.230342    0.621946    0.395358    0.000000
   431  O     s     0.285619    0.490773    0.334467    0.000000
   432  O     s     0.691940    0.138404    0.193188    0.000000
   433  O     s     0.234235    0.558871    0.843371    0.000000
   434  O     s     0.351743    0.462807    0.891007    0.000000
   435  O     s     0.281275    0.432349    0.780768    0.000000
   436  O     s     0.205900    0.408620    0.888672    0.000000
   437  O     s     0.884908    0.734405    0.772447    0.000000
   438  O     s     0.879144    0.727877    0.895358    0.000000
   439  O     s     0.010317    0.783154    0.834467    0.000000
   440  O     s     0.362687    0.189475    0.693188    0.000000
--------------------------------------------------------------------------------

  Final internal derivatives :

--------------------------------------------------------------------------------
   No.  Atomic          a             b             c           Radius
        Label          (eV)          (eV)          (eV)        (eV/Angs)
--------------------------------------------------------------------------------
      1 Si    c       0.000000      0.000000      0.000000      0.000000
      2 Si    c       0.000000      0.000000      0.000000      0.000000
      3 Si    c       0.000000      0.000000      0.000000      0.000000
      4 Si    c       0.000000      0.000000      0.000000      0.000000
      5 Si    c       0.000000      0.000000      0.000000      0.000000
      6 O     c       0.000000      0.000000      0.000000      0.000000
      7 O     c       0.000000      0.000000      0.000000      0.000000
      8 O     c       0.000000      0.000000      0.000000      0.000000
      9 O     c       0.000000      0.000000      0.000000      0.000000
     10 O     c       0.000000      0.000000      0.000000      0.000000
     11 O     c       0.000000      0.000000      0.000000      0.000000
     12 O     c       0.000000      0.000000      0.000000      0.000000
     13 O     c       0.000000      0.000000      0.000000      0.000000
     14 Si    c       0.000000      0.000000      0.000000      0.000000
     15 O     c       0.000000      0.000000      0.000000      0.000000
     16 O     c       0.000000      0.000000      0.000000      0.000000
     17 O     c       0.000000      0.000000      0.000000      0.000000
     18 O     c       0.000000      0.000000      0.000000      0.000000
     19 O     c       0.000000      0.000000      0.000000      0.000000
     20 O     c       0.000000      0.000000      0.000000      0.000000
     21 O     c       0.000000      0.000000      0.000000      0.000000
     22 Si    c       0.000000      0.000000      0.000000      0.000000
     23 Si    c       0.000000      0.000000      0.000000      0.000000
     24 Si    c       0.000000      0.000000      0.000000      0.000000
     25 Si    c       0.000000      0.000000      0.000000      0.000000
     26 Si    c       0.000000      0.000000      0.000000      0.000000
     27 O     c       0.000000      0.000000      0.000000      0.000000
     28 O     c       0.000000      0.000000      0.000000      0.000000
     29 O     c       0.000000      0.000000      0.000000      0.000000
     30 O     c       0.000000      0.000000      0.000000      0.000000
     31 O     c       0.000000      0.000000      0.000000      0.000000
     32 O     c       0.000000      0.000000      0.000000      0.000000
     33 O     c       0.000000      0.000000      0.000000      0.000000
     34 O     c       0.000000      0.000000      0.000000      0.000000
     35 Si    c       0.000000      0.000000      0.000000      0.000000
     36 O     c       0.000000      0.000000      0.000000      0.000000
     37 O     c       0.000000      0.000000      0.000000      0.000000
     38 O     c       0.000000      0.000000      0.000000      0.000000
     39 O     c       0.000000      0.000000      0.000000      0.000000
     40 O     c       0.000000      0.000000      0.000000      0.000000
     41 O     c       0.000000      0.000000      0.000000      0.000000
     42 O     c       0.000000      0.000000      0.000000      0.000000
     43 Si    c       0.000000      0.000000      0.000000      0.000000
     44 Si    c       0.000000      0.000000      0.000000      0.000000
     45 Si    c       0.000000      0.000000      0.000000      0.000000
     46 Si    c       0.000000      0.000000      0.000000      0.000000
     47 Si    c       0.000000      0.000000      0.000000      0.000000
     48 O     c       0.000000      0.000000      0.000000      0.000000
     49 O     c       0.000000      0.000000      0.000000      0.000000
     50 O     c       0.000000      0.000000      0.000000      0.000000
     51 O     c       0.000000      0.000000      0.000000      0.000000
     52 O     c       0.000000      0.000000      0.000000      0.000000
     53 O     c       0.000000      0.000000      0.000000      0.000000
     54 O     c       0.000000      0.000000      0.000000      0.000000
     55 O     c       0.000000      0.000000      0.000000      0.000000
     56 Si    c       0.000000      0.000000      0.000000      0.000000
     57 O     c       0.000000      0.000000      0.000000      0.000000
     58 O     c       0.000000      0.000000      0.000000      0.000000
     59 O     c       0.000000      0.000000      0.000000      0.000000
     60 O     c       0.000000      0.000000      0.000000      0.000000
     61 O     c       0.000000      0.000000      0.000000      0.000000
     62 O     c       0.000000      0.000000      0.000000      0.000000
     63 Si    c       0.000000      0.000000      0.000000      0.000000
     64 Si    c       0.000000      0.000000      0.000000      0.000000
     65 Si    c       0.000000      0.000000      0.000000      0.000000
[...]
    188 Si    c       0.000000      0.000000      0.000000      0.000000
    189 Si    c       0.000000      0.000000      0.000000      0.000000
    190 Si    c       0.000000      0.000000      0.000000      0.000000
    191 Si    c       0.000000      0.000000      0.000000      0.000000
    192 O     c       0.000000      0.000000      0.000000      0.000000
    193 O     c       0.000000      0.000000      0.000000      0.000000
    194 O     c       0.000000      0.000000      0.000000      0.000000
    195 O     c       0.000000      0.000000      0.000000      0.000000
    196 O     c       0.000000      0.000000      0.000000      0.000000
    197 O     c       0.000000      0.000000      0.000000      0.000000
    198 O     c       0.000000      0.000000      0.000000      0.000000
    199 O     c       0.000000      0.000000      0.000000      0.000000
    200 Si    c       0.000000      0.000000      0.000000      0.000000
    201 Si    c       0.000000      0.000000      0.000000      0.000000
    202 Si    c       0.000000      0.000000      0.000000      0.000000
    203 Si    c       0.000000      0.000000      0.000000      0.000000
    204 Si    c       0.000000      0.000000      0.000000      0.000000
    205 O     c       0.000000      0.000000      0.000000      0.000000
    206 O     c       0.000000      0.000000      0.000000      0.000000
    207 O     c       0.000000      0.000000      0.000000      0.000000
    208 O     c       0.000000      0.000000      0.000000      0.000000
    209 O     c       0.000000      0.000000      0.000000      0.000000
    210 O     c       0.000000      0.000000      0.000000      0.000000
    211 O     c       0.000000      0.000000      0.000000      0.000000
    212 O     c       0.000000      0.000000      0.000000      0.000000
    213 Si    c       0.000000      0.000000      0.000000      0.000000
    214 Si    c       0.000000      0.000000      0.000000      0.000000
    215 Si    c       0.000000      0.000000      0.000000      0.000000
    216 Si    c       0.000000      0.000000      0.000000      0.000000
    217 Si    c       0.000000      0.000000      0.000000      0.000000
    218 O     c       0.000000      0.000000      0.000000      0.000000
    219 O     c       0.000000      0.000000      0.000000      0.000000
    220 O     c       0.000000      0.000000      0.000000      0.000000
    221 O     c       0.000000      0.000000      0.000000      0.000000
    222 O     c       0.000000      0.000000      0.000000      0.000000
    223 O     c       0.000000      0.000000      0.000000      0.000000
    224 O     c       0.000000      0.000000      0.000000      0.000000
    225 O     c       0.000000      0.000000      0.000000      0.000000
    226 Si    c       0.000000      0.000000      0.000000      0.000000
    227 Si    c       0.000000      0.000000      0.000000      0.000000
    228 Si    c       0.000000      0.000000      0.000000      0.000000
    229 Si    c       0.000000      0.000000      0.000000      0.000000
    230 Si    c       0.000000      0.000000      0.000000      0.000000
    231 O     c       0.000000      0.000000      0.000000      0.000000
    232 O     c       0.000000      0.000000      0.000000      0.000000
    233 O     c       0.000000      0.000000      0.000000      0.000000
    234 O     c       0.000000      0.000000      0.000000      0.000000
    235 O     c       0.000000      0.000000      0.000000      0.000000
    236 O     c       0.000000      0.000000      0.000000      0.000000
    237 O     c       0.000000      0.000000      0.000000      0.000000
    238 O     c       0.000000      0.000000      0.000000      0.000000
    239 Si    c       0.000000      0.000000      0.000000      0.000000
    240 Si    c       0.000000      0.000000      0.000000      0.000000
    241 Si    c       0.000000      0.000000      0.000000      0.000000
    242 Si    c       0.000000      0.000000      0.000000      0.000000
    243 Si    c       0.000000      0.000000      0.000000      0.000000
    244 O     c       0.000000      0.000000      0.000000      0.000000
    245 O     c       0.000000      0.000000      0.000000      0.000000
    246 O     c       0.000000      0.000000      0.000000      0.000000
    247 O     c       0.000000      0.000000      0.000000      0.000000
    248 O     c       0.000000      0.000000      0.000000      0.000000
    249 O     c       0.000000      0.000000      0.000000      0.000000
    250 O     c       0.000000      0.000000      0.000000      0.000000
    251 O     c       0.000000      0.000000      0.000000      0.000000
    252 Si    c       0.000000      0.000000      0.000000      0.000000
    253 Si    c       0.000000      0.000000      0.000000      0.000000
    254 Si    c       0.000000      0.000000      0.000000      0.000000
    255 Si    c       0.000000      0.000000      0.000000      0.000000
    256 Si    c       0.000000      0.000000      0.000000      0.000000
    257 O     c       0.000000      0.000000      0.000000      0.000000
    258 O     c       0.000000      0.000000      0.000000      0.000000
    259 O     c       0.000000      0.000000      0.000000      0.000000
    260 O     c       0.000000      0.000000      0.000000      0.000000
    261 O     c       0.000000      0.000000      0.000000      0.000000
    262 O     c       0.000000      0.000000      0.000000      0.000000
    263 O     c       0.000000      0.000000      0.000000      0.000000
    264 O     c       0.000000      0.000000      0.000000      0.000000
    265 O     s       0.000452     -0.001483      0.003056      0.000000
    266 O     s       0.001584      0.000172      0.000532      0.000000
    267 O     s      -0.000387      0.000975      0.000244      0.000000
    268 O     s       0.001642     -0.002586      0.000424      0.000000
    269 O     s      -0.002134      0.000241      0.000676      0.000000
    270 O     s      -0.000120      0.002496      0.002498      0.000000
    271 O     s       0.000682      0.000933      0.003579      0.000000
    272 O     s      -0.001709      0.001613     -0.002113      0.000000
    273 O     s       0.002169      0.002169      0.000997      0.000000
    274 O     s      -0.000390     -0.000390     -0.003619      0.000000
    275 O     s       0.000759      0.000759      0.003391      0.000000
    276 O     s      -0.001389     -0.001389     -0.000515      0.000000
    277 O     s      -0.001232      0.001232      0.000000      0.000000
    278 O     s       0.000000      0.000000      0.000686      0.000000
    279 O     s       0.002460     -0.001655     -0.000000      0.000000
    280 O     s       0.001483      0.000452      0.003056      0.000000
    281 O     s      -0.000172      0.001584      0.000532      0.000000
    282 O     s      -0.000975     -0.000387      0.000244      0.000000
    283 O     s       0.002586      0.001642      0.000424      0.000000
    284 O     s      -0.000241     -0.002134      0.000676      0.000000
    285 O     s      -0.002496     -0.000120      0.002498      0.000000
    286 O     s      -0.000933      0.000682      0.003579      0.000000
    287 O     s      -0.001613     -0.001709     -0.002113      0.000000
    288 O     s      -0.002169      0.002169      0.000997      0.000000
    289 O     s       0.000390     -0.000390     -0.003619      0.000000
    290 O     s      -0.000759      0.000759      0.003391      0.000000
    291 O     s       0.001389     -0.001389     -0.000515      0.000000
    292 O     s      -0.001232     -0.001232     -0.000000      0.000000
    293 O     s       0.000000     -0.000000      0.000686      0.000000
    294 O     s       0.001655      0.002460      0.000000      0.000000
    295 O     s      -0.000452      0.001483      0.003056      0.000000
    296 O     s      -0.001584     -0.000172      0.000532      0.000000
    297 O     s       0.000387     -0.000975      0.000244      0.000000
    298 O     s      -0.001642      0.002586      0.000424      0.000000
    299 O     s       0.002134     -0.000241      0.000676      0.000000
    300 O     s       0.000120     -0.002496      0.002498      0.000000
    301 O     s      -0.000682     -0.000933      0.003579      0.000000
    302 O     s       0.001709     -0.001613     -0.002113      0.000000
    303 O     s      -0.002169     -0.002169      0.000997      0.000000
    304 O     s       0.000390      0.000390     -0.003619      0.000000
    305 O     s      -0.000759     -0.000759      0.003391      0.000000
    306 O     s       0.001389      0.001389     -0.000515      0.000000
    307 O     s       0.001232     -0.001232      0.000000      0.000000
    308 O     s      -0.002460      0.001655      0.000000      0.000000
    309 O     s      -0.001483     -0.000452      0.003056      0.000000
    310 O     s       0.000172     -0.001584      0.000532      0.000000
    311 O     s       0.000975      0.000387      0.000244      0.000000
    312 O     s      -0.002586     -0.001642      0.000424      0.000000
    313 O     s       0.000241      0.002134      0.000676      0.000000
    314 O     s       0.002496      0.000120      0.002498      0.000000
    315 O     s       0.000933     -0.000682      0.003579      0.000000
    316 O     s       0.001613      0.001709     -0.002113      0.000000
    317 O     s       0.002169     -0.002169      0.000997      0.000000
    318 O     s      -0.000390      0.000390     -0.003619      0.000000
    319 O     s       0.000759     -0.000759      0.003391      0.000000
    320 O     s      -0.001389      0.001389     -0.000515      0.000000
    321 O     s       0.001232      0.001232      0.000000      0.000000
    322 O     s      -0.001655     -0.002460     -0.000000      0.000000
    323 O     s       0.000452      0.001483     -0.003056      0.000000
    324 O     s       0.001584     -0.000172     -0.000532      0.000000
    325 O     s      -0.000387     -0.000975     -0.000244      0.000000
    326 O     s       0.001642      0.002586     -0.000424      0.000000
    327 O     s      -0.002134     -0.000241     -0.000676      0.000000
    328 O     s      -0.000120     -0.002496     -0.002498      0.000000
    329 O     s       0.000682     -0.000933     -0.003579      0.000000
    330 O     s      -0.001709     -0.001613      0.002113      0.000000
    331 O     s       0.002169     -0.002169     -0.000997      0.000000
    332 O     s      -0.000390      0.000390      0.003619      0.000000
    333 O     s       0.000759     -0.000759     -0.003391      0.000000
    334 O     s      -0.001389      0.001389      0.000515      0.000000
    335 O     s       0.000000     -0.000000     -0.000686      0.000000
    336 O     s       0.002460      0.001655     -0.000000      0.000000
    337 O     s      -0.001483      0.000452     -0.003056      0.000000
    338 O     s       0.000172      0.001584     -0.000532      0.000000
    339 O     s       0.000975     -0.000387     -0.000244      0.000000
    340 O     s      -0.002586      0.001642     -0.000424      0.000000
    341 O     s       0.000241     -0.002134     -0.000676      0.000000
    342 O     s       0.002496     -0.000120     -0.002498      0.000000
    343 O     s       0.000933      0.000682     -0.003579      0.000000
    344 O     s       0.001613     -0.001709      0.002113      0.000000
    345 O     s       0.002169      0.002169     -0.000997      0.000000
    346 O     s      -0.000390     -0.000390      0.003619      0.000000
    347 O     s       0.000759      0.000759     -0.003391      0.000000
    348 O     s      -0.001389     -0.001389      0.000515      0.000000
    349 O     s      -0.000000      0.000000     -0.000686      0.000000
    350 O     s      -0.001655      0.002460      0.000000      0.000000
    351 O     s      -0.000452     -0.001483     -0.003056      0.000000
    352 O     s      -0.001584      0.000172     -0.000532      0.000000
    353 O     s       0.000387      0.000975     -0.000244      0.000000
    354 O     s      -0.001642     -0.002586     -0.000424      0.000000
    355 O     s       0.002134      0.000241     -0.000676      0.000000
    356 O     s       0.000120      0.002496     -0.002498      0.000000
    357 O     s      -0.000682      0.000933     -0.003579      0.000000
    358 O     s       0.001709      0.001613      0.002113      0.000000
    359 O     s      -0.002169      0.002169     -0.000997      0.000000
    360 O     s       0.000390     -0.000390      0.003619      0.000000
    361 O     s      -0.000759      0.000759     -0.003391      0.000000
    362 O     s       0.001389     -0.001389      0.000515      0.000000
    363 O     s      -0.002460     -0.001655     -0.000000      0.000000
    364 O     s       0.001483     -0.000452     -0.003056      0.000000
    365 O     s      -0.000172     -0.001584     -0.000532      0.000000
    366 O     s      -0.000975      0.000387     -0.000244      0.000000
    367 O     s       0.002586     -0.001642     -0.000424      0.000000
    368 O     s      -0.000241      0.002134     -0.000676      0.000000
    369 O     s      -0.002496      0.000120     -0.002498      0.000000
    370 O     s      -0.000933     -0.000682     -0.003579      0.000000
    371 O     s      -0.001613      0.001709      0.002113      0.000000
    372 O     s      -0.002169     -0.002169     -0.000997      0.000000
    373 O     s       0.000390      0.000390      0.003619      0.000000
    374 O     s      -0.000759     -0.000759     -0.003391      0.000000
    375 O     s       0.001389      0.001389      0.000515      0.000000
    376 O     s       0.001655     -0.002460      0.000000      0.000000
    377 O     s      -0.000452      0.001483     -0.003056      0.000000
    378 O     s      -0.001584     -0.000172     -0.000532      0.000000
    379 O     s       0.000387     -0.000975     -0.000244      0.000000
    380 O     s      -0.001642      0.002586     -0.000424      0.000000
    381 O     s       0.002134     -0.000241     -0.000676      0.000000
    382 O     s       0.000120     -0.002496     -0.002498      0.000000
    383 O     s      -0.000682     -0.000933     -0.003579      0.000000
    384 O     s       0.001709     -0.001613      0.002113      0.000000
    385 O     s      -0.001483     -0.000452     -0.003056      0.000000
    386 O     s       0.000172     -0.001584     -0.000532      0.000000
    387 O     s       0.000975      0.000387     -0.000244      0.000000
    388 O     s      -0.002586     -0.001642     -0.000424      0.000000
    389 O     s       0.000241      0.002134     -0.000676      0.000000
    390 O     s       0.002496      0.000120     -0.002498      0.000000
    391 O     s       0.000933     -0.000682     -0.003579      0.000000
    392 O     s       0.001613      0.001709      0.002113      0.000000
    393 O     s       0.000452     -0.001483     -0.003056      0.000000
    394 O     s       0.001584      0.000172     -0.000532      0.000000
    395 O     s      -0.000387      0.000975     -0.000244      0.000000
    396 O     s       0.001642     -0.002586     -0.000424      0.000000
    397 O     s      -0.002134      0.000241     -0.000676      0.000000
    398 O     s      -0.000120      0.002496     -0.002498      0.000000
    399 O     s       0.000682      0.000933     -0.003579      0.000000
    400 O     s      -0.001709      0.001613      0.002113      0.000000
    401 O     s       0.001483      0.000452     -0.003056      0.000000
    402 O     s      -0.000172      0.001584     -0.000532      0.000000
    403 O     s      -0.000975     -0.000387     -0.000244      0.000000
    404 O     s       0.002586      0.001642     -0.000424      0.000000
    405 O     s      -0.000241     -0.002134     -0.000676      0.000000
    406 O     s      -0.002496     -0.000120     -0.002498      0.000000
    407 O     s      -0.000933      0.000682     -0.003579      0.000000
    408 O     s      -0.001613     -0.001709      0.002113      0.000000
    409 O     s      -0.000452     -0.001483      0.003056      0.000000
    410 O     s      -0.001584      0.000172      0.000532      0.000000
    411 O     s       0.000387      0.000975      0.000244      0.000000
    412 O     s      -0.001642     -0.002586      0.000424      0.000000
    413 O     s       0.002134      0.000241      0.000676      0.000000
    414 O     s       0.000120      0.002496      0.002498      0.000000
    415 O     s      -0.000682      0.000933      0.003579      0.000000
    416 O     s       0.001709      0.001613     -0.002113      0.000000
    417 O     s       0.001483     -0.000452      0.003056      0.000000
    418 O     s      -0.000172     -0.001584      0.000532      0.000000
    419 O     s      -0.000975      0.000387      0.000244      0.000000
    420 O     s       0.002586     -0.001642      0.000424      0.000000
    421 O     s      -0.000241      0.002134      0.000676      0.000000
    422 O     s      -0.002496      0.000120      0.002498      0.000000
    423 O     s      -0.000933     -0.000682      0.003579      0.000000
    424 O     s      -0.001613      0.001709     -0.002113      0.000000
    425 O     s       0.000452      0.001483      0.003056      0.000000
    426 O     s       0.001584     -0.000172      0.000532      0.000000
    427 O     s      -0.000387     -0.000975      0.000244      0.000000
    428 O     s       0.001642      0.002586      0.000424      0.000000
    429 O     s      -0.002134     -0.000241      0.000676      0.000000
    430 O     s      -0.000120     -0.002496      0.002498      0.000000
    431 O     s       0.000682     -0.000933      0.003579      0.000000
    432 O     s      -0.001709     -0.001613     -0.002113      0.000000
    433 O     s      -0.001483      0.000452      0.003056      0.000000
    434 O     s       0.000172      0.001584      0.000532      0.000000
    435 O     s       0.000975     -0.000387      0.000244      0.000000
    436 O     s      -0.002586      0.001642      0.000424      0.000000
    437 O     s       0.000241     -0.002134      0.000676      0.000000
    438 O     s       0.002496     -0.000120      0.002498      0.000000
    439 O     s       0.000933      0.000682      0.003579      0.000000
    440 O     s       0.001613     -0.001709     -0.002113      0.000000
--------------------------------------------------------------------------------
  Maximum abs         0.002586      0.002586      0.003619      0.000000
--------------------------------------------------------------------------------


  Time to end of optimisation =      16.7920 seconds


  Peak dynamic memory used =      10.49 MB 


  Timing analysis for GULP :

--------------------------------------------------------------------------------
  Task / Subroutine                                          Time (Seconds)
--------------------------------------------------------------------------------
  Calculation of reciprocal space energy and derivatives          6.2175
  Calculation of real space energy and derivatives                6.2626
  Calculation of three-body energy and derivatives                1.8410
  Calculation and manipulation of Hessian matrix                  2.3733
  Calculation of matrix inversion                                 0.0351
  Symmetry generation of equivalent positions                     0.0004
--------------------------------------------------------------------------------
  Total CPU time                                                 16.7921
--------------------------------------------------------------------------------


  Dump file written as ReferenceDataBase/8317769_111.grs
  CIF file written as ReferenceDataBase/8317769_111_opt.cif


  Job Finished at 00:43.12  6th February   2024                               

