********************************************************************************
*                       GENERAL UTILITY LATTICE PROGRAM                        *
*                                 Julian Gale                                  *
*                       Curtin Institute for Computation                       *
*                    School of Molecular and Life Sciences                     *
*                    Curtin University, Western Australia                      *
********************************************************************************
* Version = 6.1.2 * Last modified =   3rd November 2022                        *
********************************************************************************
*  optimise     - perform optimisation run                                     *
*  conv         - constant volume calculation                                  *
*  shell        - only shells and radii to be optimised                        *
*  nosymmetry   - turn off symmetry after initial structure generation         *
********************************************************************************

  Job Started  at 00:43.29  6th February   2024                               

  Number of CPUs =     1


  Total number of configurations input =      1

********************************************************************************
*  Input for Configuration =   1 : ReferenceDataBase/8323211_111               *
********************************************************************************

  Formula = Si80O160                                                    

  Number of irreducible atoms/shells =     400


  Total number atoms/shells =     400

  Dimensionality = 3               :  Bulk   



  Cartesian lattice vectors (Angstroms) :

       18.144600    0.000000    0.000000
       -9.072300   15.713685    0.000000
        0.000000    0.000000   20.150400

  Cell parameters (Angstroms/Degrees):

  a =      18.1446    alpha =  90.0000
  b =      18.1446    beta  =  90.0000
  c =      20.1504    gamma = 120.0000

  Initial cell volume =        5745.252236 Angs**3

  Temperature of configuration =   0.00     K 

  Pressure of configuration =         0.000 GPa 

  Fractional coordinates of asymmetric unit :

--------------------------------------------------------------------------------
   No.  Atomic       x           y          z         Charge      Occupancy
        Label      (Frac)      (Frac)     (Frac)        (e)         (Frac)  
--------------------------------------------------------------------------------
      1 Si    c    0.069675    0.625790    0.179031     4.00000    1.000000    
      2 Si    c    0.526891    0.770327    0.376784     4.00000    1.000000    
      3 Si    c    0.620209    0.075256    0.830973     4.00000    1.000000    
      4 Si    c    0.940971    0.562695    0.444340     4.00000    1.000000    
      5 Si    c    0.240487    0.483952    0.975407     4.00000    1.000000    
      6 Si    c    0.448091    0.069815    0.444340     4.00000    1.000000    
      7 O     c    0.144799    0.720204    0.161192     0.86902    1.000000    
      8 O     c    0.099805    0.556784    0.163961     0.86902    1.000000    
      9 O     c    0.042129    0.622103    0.255002     0.86902    1.000000    
     10 O     c    0.987633    0.602887    0.134753     0.86902    1.000000    
     11 O     c    0.572427    0.865987    0.348812     0.86902    1.000000    
     12 O     c    0.530321    0.772042    0.455527     0.86902    1.000000    
     13 O     c    0.431297    0.722530    0.348529     0.86902    1.000000    
     14 O     c    0.574199    0.293981    0.448544     0.86902    1.000000    
     15 O     c    0.597307    0.993214    0.875251     0.86902    1.000000    
     16 O     c    0.860502    0.577210    0.447660     0.86902    1.000000    
     17 O     c    0.911351    0.462557    0.449920     0.86902    1.000000    
     18 O     c    0.002603    0.612834    0.505002     0.86902    1.000000    
     19 O     c    0.144703    0.439156    0.947660     0.86902    1.000000    
     20 Si    c    0.669269    0.341517    0.476159     4.00000    1.000000    
     21 Si    c    0.669269    0.341517    0.876169     4.00000    1.000000    
     22 O     c    0.669269    0.341517    0.555066     0.86902    1.000000    
     23 Si    c    0.384996    0.457649    0.179031     4.00000    1.000000    
     24 Si    c    0.240459    0.770327    0.376784     4.00000    1.000000    
     25 Si    c    0.935530    0.558717    0.830973     4.00000    1.000000    
     26 Si    c    0.448091    0.392040    0.444340     4.00000    1.000000    
     27 Si    c    0.526833    0.770298    0.975407     4.00000    1.000000    
     28 Si    c    0.940971    0.392040    0.444340     4.00000    1.000000    
     29 O     c    0.290582    0.438359    0.161192     0.86902    1.000000    
     30 O     c    0.454002    0.556784    0.163961     0.86902    1.000000    
     31 O     c    0.388682    0.433789    0.255002     0.86902    1.000000    
     32 O     c    0.407899    0.398510    0.134753     0.86902    1.000000    
     33 O     c    0.144799    0.720204    0.348812     0.86902    1.000000    
     34 O     c    0.238744    0.772042    0.455527     0.86902    1.000000    
     35 O     c    0.288256    0.722530    0.348529     0.86902    1.000000    
     36 O     c    0.716804    0.293981    0.448544     0.86902    1.000000    
     37 O     c    0.017572    0.617857    0.875251     0.86902    1.000000    
     38 O     c    0.433576    0.297056    0.447660     0.86902    1.000000    
     39 O     c    0.548228    0.462557    0.449920     0.86902    1.000000    
     40 O     c    0.397952    0.403532    0.505002     0.86902    1.000000    
     41 O     c    0.571629    0.719311    0.947660     0.86902    1.000000    
     42 Si    c    0.553137    0.941111    0.179031     4.00000    1.000000    
     43 Si    c    0.240459    0.483895    0.376784     4.00000    1.000000    
     44 Si    c    0.452068    0.390577    0.830973     4.00000    1.000000    
     45 Si    c    0.618746    0.069815    0.444340     4.00000    1.000000    
     46 Si    c    0.240487    0.770298    0.975407     4.00000    1.000000    
     47 Si    c    0.618746    0.562694    0.444340     4.00000    1.000000    
     48 O     c    0.572427    0.865987    0.161192     0.86902    1.000000    
     49 O     c    0.454002    0.910981    0.163961     0.86902    1.000000    
     50 O     c    0.576996    0.968656    0.255002     0.86902    1.000000    
     51 O     c    0.612276    0.023153    0.134753     0.86902    1.000000    
     52 O     c    0.290582    0.438359    0.348812     0.86902    1.000000    
     53 O     c    0.238744    0.480465    0.455527     0.86902    1.000000    
     54 O     c    0.288256    0.579489    0.348529     0.86902    1.000000    
     55 O     c    0.716804    0.436586    0.448544     0.86902    1.000000    
     56 O     c    0.392929    0.413479    0.875251     0.86902    1.000000    
     57 O     c    0.713730    0.150284    0.447660     0.86902    1.000000    
     58 O     c    0.548228    0.099435    0.449920     0.86902    1.000000    
     59 O     c    0.607254    0.008183    0.505002     0.86902    1.000000    
     60 O     c    0.291475    0.866083    0.947660     0.86902    1.000000    
     61 Si    c    0.384996    0.941111    0.330973     4.00000    1.000000    
     62 Si    c    0.240459    0.483895    0.133220     4.00000    1.000000    
     63 Si    c    0.935530    0.390577    0.679031     4.00000    1.000000    
     64 Si    c    0.448091    0.069815    0.065664     4.00000    1.000000    
     65 Si    c    0.526833    0.770298    0.534596     4.00000    1.000000    
     66 Si    c    0.940971    0.562695    0.065664     4.00000    1.000000    
     67 O     c    0.290582    0.865987    0.348812     0.86902    1.000000    
     68 O     c    0.454002    0.910981    0.346043     0.86902    1.000000    
     69 O     c    0.388682    0.968656    0.255002     0.86902    1.000000    
     70 O     c    0.407899    0.023153    0.375251     0.86902    1.000000    
     71 O     c    0.144799    0.438359    0.161192     0.86902    1.000000    
     72 O     c    0.238744    0.480465    0.054477     0.86902    1.000000    
     73 O     c    0.288256    0.579489    0.161475     0.86902    1.000000    
     74 O     c    0.716804    0.436586    0.061460     0.86902    1.000000    
     75 O     c    0.017572    0.413479    0.634753     0.86902    1.000000    
     76 O     c    0.433576    0.150284    0.062344     0.86902    1.000000    
     77 O     c    0.548228    0.099435    0.060084     0.86902    1.000000    
     78 O     c    0.397952    0.008183    0.005002     0.86902    1.000000    
     79 O     c    0.571629    0.866083    0.562343     0.86902    1.000000    
     80 Si    c    0.669269    0.341517    0.033844     4.00000    1.000000    
     81 Si    c    0.669269    0.341517    0.633834     4.00000    1.000000    
     82 O     c    0.669269    0.341517    0.954938     0.86902    1.000000    
     83 Si    c    0.069675    0.457649    0.330973     4.00000    1.000000    
     84 Si    c    0.526891    0.770327    0.133220     4.00000    1.000000    
     85 Si    c    0.620209    0.558717    0.679031     4.00000    1.000000    
     86 Si    c    0.940971    0.392040    0.065664     4.00000    1.000000    
     87 Si    c    0.240487    0.770298    0.534596     4.00000    1.000000    
     88 Si    c    0.448091    0.392040    0.065664     4.00000    1.000000    
     89 O     c    0.144799    0.438359    0.348812     0.86902    1.000000    
     90 O     c    0.099805    0.556784    0.346043     0.86902    1.000000    
     91 O     c    0.042129    0.433789    0.255002     0.86902    1.000000    
     92 O     c    0.987633    0.398510    0.375251     0.86902    1.000000    
     93 O     c    0.572427    0.720204    0.161192     0.86902    1.000000    
     94 O     c    0.530321    0.772042    0.054477     0.86902    1.000000    
     95 O     c    0.431297    0.722530    0.161475     0.86902    1.000000    
     96 O     c    0.574199    0.293981    0.061460     0.86902    1.000000    
     97 O     c    0.597307    0.617857    0.634753     0.86902    1.000000    
     98 O     c    0.860502    0.297056    0.062344     0.86902    1.000000    
     99 O     c    0.911351    0.462557    0.060084     0.86902    1.000000    
    100 O     c    0.002603    0.403532    0.005002     0.86902    1.000000    
    101 O     c    0.144703    0.719311    0.562343     0.86902    1.000000    
    102 Si    c    0.553137    0.625790    0.330973     4.00000    1.000000    
    103 Si    c    0.240459    0.770327    0.133220     4.00000    1.000000    
    104 Si    c    0.452068    0.075256    0.679031     4.00000    1.000000    
    105 Si    c    0.618746    0.562695    0.065664     4.00000    1.000000    
    106 Si    c    0.240487    0.483952    0.534596     4.00000    1.000000    
    107 Si    c    0.618746    0.069815    0.065664     4.00000    1.000000    
    108 O     c    0.572427    0.720204    0.348812     0.86902    1.000000    
    109 O     c    0.454002    0.556784    0.346043     0.86902    1.000000    
    110 O     c    0.576996    0.622103    0.255002     0.86902    1.000000    
    111 O     c    0.612276    0.602887    0.375251     0.86902    1.000000    
    112 O     c    0.290582    0.865987    0.161192     0.86902    1.000000    
    113 O     c    0.238744    0.772042    0.054477     0.86902    1.000000    
    114 O     c    0.288256    0.722530    0.161475     0.86902    1.000000    
    115 O     c    0.716804    0.293981    0.061460     0.86902    1.000000    
    116 O     c    0.392929    0.993214    0.634753     0.86902    1.000000    
    117 O     c    0.713730    0.577210    0.062344     0.86902    1.000000    
    118 O     c    0.548228    0.462557    0.060084     0.86902    1.000000    
    119 O     c    0.607254    0.612834    0.005002     0.86902    1.000000    
    120 O     c    0.291475    0.439156    0.562343     0.86902    1.000000    
    121 Si    c    0.935530    0.390577    0.830973     4.00000    1.000000    
    122 Si    c    0.478314    0.246039    0.633220     4.00000    1.000000    
    123 Si    c    0.384996    0.941111    0.179031     4.00000    1.000000    
    124 Si    c    0.064235    0.453672    0.565664     4.00000    1.000000    
    125 Si    c    0.764718    0.532414    0.034596     4.00000    1.000000    
    126 Si    c    0.557114    0.946551    0.565664     4.00000    1.000000    
    127 O     c    0.860406    0.296163    0.848812     0.86902    1.000000    
    128 O     c    0.905400    0.459582    0.846043     0.86902    1.000000    
    129 O     c    0.963076    0.394263    0.755002     0.86902    1.000000    
    130 O     c    0.017572    0.413479    0.875251     0.86902    1.000000    
    131 O     c    0.432779    0.150380    0.661192     0.86902    1.000000    
    132 O     c    0.474885    0.244324    0.554477     0.86902    1.000000    
    133 O     c    0.573909    0.293836    0.661475     0.86902    1.000000    
    134 O     c    0.431006    0.722385    0.561460     0.86902    1.000000    
    135 O     c    0.407899    0.023153    0.134753     0.86902    1.000000    
    136 O     c    0.144703    0.439156    0.562343     0.86902    1.000000    
    137 O     c    0.093854    0.553809    0.560084     0.86902    1.000000    
    138 O     c    0.002603    0.403532    0.505002     0.86902    1.000000    
    139 O     c    0.860502    0.577210    0.062344     0.86902    1.000000    
    140 Si    c    0.335936    0.674850    0.533844     4.00000    1.000000    
    141 Si    c    0.335936    0.674850    0.133834     4.00000    1.000000    
    142 O     c    0.335936    0.674850    0.454938     0.86902    1.000000    
    143 Si    c    0.620209    0.558717    0.830973     4.00000    1.000000    
    144 Si    c    0.764747    0.246039    0.633220     4.00000    1.000000    
    145 Si    c    0.069675    0.457649    0.179031     4.00000    1.000000    
    146 Si    c    0.557114    0.624327    0.565664     4.00000    1.000000    
    147 Si    c    0.478372    0.246068    0.034596     4.00000    1.000000    
    148 Si    c    0.064235    0.624327    0.565664     4.00000    1.000000    
    149 O     c    0.714623    0.578007    0.848812     0.86902    1.000000    
    150 O     c    0.551204    0.459582    0.846043     0.86902    1.000000    
    151 O     c    0.616523    0.582577    0.755002     0.86902    1.000000    
    152 O     c    0.597307    0.617857    0.875251     0.86902    1.000000    
    153 O     c    0.860406    0.296163    0.661192     0.86902    1.000000    
    154 O     c    0.766462    0.244324    0.554477     0.86902    1.000000    
    155 O     c    0.716950    0.293836    0.661475     0.86902    1.000000    
    156 O     c    0.288401    0.722385    0.561460     0.86902    1.000000    
    157 O     c    0.987633    0.398510    0.134753     0.86902    1.000000    
    158 O     c    0.571629    0.719311    0.562343     0.86902    1.000000    
    159 O     c    0.456977    0.553809    0.560084     0.86902    1.000000    
    160 O     c    0.607254    0.612834    0.505002     0.86902    1.000000    
    161 O     c    0.433576    0.297056    0.062344     0.86902    1.000000    
    162 Si    c    0.452068    0.075256    0.830973     4.00000    1.000000    
    163 Si    c    0.764747    0.532472    0.633220     4.00000    1.000000    
    164 Si    c    0.553137    0.625790    0.179031     4.00000    1.000000    
    165 Si    c    0.386459    0.946551    0.565664     4.00000    1.000000    
    166 Si    c    0.764718    0.246068    0.034596     4.00000    1.000000    
    167 Si    c    0.386459    0.453672    0.565664     4.00000    1.000000    
    168 O     c    0.432779    0.150380    0.848812     0.86902    1.000000    
    169 O     c    0.551204    0.105386    0.846043     0.86902    1.000000    
    170 O     c    0.428209    0.047710    0.755002     0.86902    1.000000    
    171 O     c    0.392929    0.993214    0.875251     0.86902    1.000000    
    172 O     c    0.714623    0.578007    0.661192     0.86902    1.000000    
    173 O     c    0.766462    0.535901    0.554477     0.86902    1.000000    
    174 O     c    0.716950    0.436877    0.661475     0.86902    1.000000    
    175 O     c    0.288401    0.579780    0.561460     0.86902    1.000000    
    176 O     c    0.612276    0.602887    0.134753     0.86902    1.000000    
    177 O     c    0.291475    0.866083    0.562343     0.86902    1.000000    
    178 O     c    0.456977    0.916932    0.560084     0.86902    1.000000    
    179 O     c    0.397952    0.008183    0.505002     0.86902    1.000000    
    180 O     c    0.713730    0.150284    0.062344     0.86902    1.000000    
    181 Si    c    0.620209    0.075256    0.679031     4.00000    1.000000    
    182 Si    c    0.764747    0.532472    0.876784     4.00000    1.000000    
    183 Si    c    0.069675    0.625790    0.330973     4.00000    1.000000    
    184 Si    c    0.557114    0.946551    0.944340     4.00000    1.000000    
    185 Si    c    0.478372    0.246068    0.475407     4.00000    1.000000    
    186 Si    c    0.064235    0.453672    0.944340     4.00000    1.000000    
    187 O     c    0.714623    0.150380    0.661192     0.86902    1.000000    
    188 O     c    0.551204    0.105386    0.663961     0.86902    1.000000    
    189 O     c    0.616523    0.047710    0.755002     0.86902    1.000000    
    190 O     c    0.597307    0.993214    0.634753     0.86902    1.000000    
    191 O     c    0.860406    0.578007    0.848812     0.86902    1.000000    
    192 O     c    0.766462    0.535901    0.955527     0.86902    1.000000    
    193 O     c    0.716950    0.436877    0.848529     0.86902    1.000000    
    194 O     c    0.288401    0.579780    0.948544     0.86902    1.000000    
    195 O     c    0.987633    0.602887    0.375251     0.86902    1.000000    
    196 O     c    0.571629    0.866083    0.947660     0.86902    1.000000    
    197 O     c    0.456977    0.916932    0.949920     0.86902    1.000000    
    198 O     c    0.607254    0.008183    0.005002     0.86902    1.000000    
    199 O     c    0.433576    0.150284    0.447660     0.86902    1.000000    
    200 Si    c    0.335936    0.674850    0.976159     4.00000    1.000000    
    201 Si    c    0.335936    0.674850    0.376169     4.00000    1.000000    
    202 O     c    0.335936    0.674850    0.055066     0.86902    1.000000    
    203 Si    c    0.935530    0.558717    0.679031     4.00000    1.000000    
    204 Si    c    0.478314    0.246039    0.876784     4.00000    1.000000    
    205 Si    c    0.384996    0.457649    0.330973     4.00000    1.000000    
    206 Si    c    0.064235    0.624327    0.944340     4.00000    1.000000    
    207 Si    c    0.764718    0.246068    0.475407     4.00000    1.000000    
    208 Si    c    0.557114    0.624327    0.944340     4.00000    1.000000    
    209 O     c    0.860406    0.578007    0.661192     0.86902    1.000000    
    210 O     c    0.905400    0.459582    0.663961     0.86902    1.000000    
    211 O     c    0.963076    0.582577    0.755002     0.86902    1.000000    
    212 O     c    0.017572    0.617857    0.634753     0.86902    1.000000    
    213 O     c    0.432779    0.296163    0.848812     0.86902    1.000000    
    214 O     c    0.474885    0.244324    0.955527     0.86902    1.000000    
    215 O     c    0.573909    0.293836    0.848529     0.86902    1.000000    
    216 O     c    0.431006    0.722385    0.948544     0.86902    1.000000    
    217 O     c    0.407899    0.398510    0.375251     0.86902    1.000000    
    218 O     c    0.144703    0.719311    0.947660     0.86902    1.000000    
    219 O     c    0.093854    0.553809    0.949920     0.86902    1.000000    
    220 O     c    0.002603    0.612834    0.005002     0.86902    1.000000    
    221 O     c    0.860502    0.297056    0.447660     0.86902    1.000000    
    222 Si    c    0.452068    0.390577    0.679031     4.00000    1.000000    
    223 Si    c    0.764747    0.246039    0.876784     4.00000    1.000000    
    224 Si    c    0.553137    0.941111    0.330973     4.00000    1.000000    
    225 Si    c    0.386459    0.453672    0.944340     4.00000    1.000000    
    226 Si    c    0.764718    0.532414    0.475407     4.00000    1.000000    
    227 Si    c    0.386459    0.946551    0.944340     4.00000    1.000000    
    228 O     c    0.432779    0.296163    0.661192     0.86902    1.000000    
    229 O     c    0.551204    0.459582    0.663961     0.86902    1.000000    
    230 O     c    0.428209    0.394263    0.755002     0.86902    1.000000    
    231 O     c    0.392929    0.413479    0.634753     0.86902    1.000000    
    232 O     c    0.714623    0.150380    0.848812     0.86902    1.000000    
    233 O     c    0.766462    0.244324    0.955527     0.86902    1.000000    
    234 O     c    0.716950    0.293836    0.848529     0.86902    1.000000    
    235 O     c    0.288401    0.722385    0.948544     0.86902    1.000000    
    236 O     c    0.612276    0.023153    0.375251     0.86902    1.000000    
    237 O     c    0.291475    0.439156    0.947660     0.86902    1.000000    
    238 O     c    0.456977    0.553809    0.949920     0.86902    1.000000    
    239 O     c    0.397952    0.403532    0.005002     0.86902    1.000000    
    240 O     c    0.713730    0.577210    0.447660     0.86902    1.000000    
    241 O     s    0.144799 *  0.720204 *  0.161192 *  -2.86902    1.000000    
    242 O     s    0.099805 *  0.556784 *  0.163961 *  -2.86902    1.000000    
    243 O     s    0.042129 *  0.622103 *  0.255002 *  -2.86902    1.000000    
    244 O     s    0.987633 *  0.602887 *  0.134753 *  -2.86902    1.000000    
    245 O     s    0.572427 *  0.865987 *  0.348812 *  -2.86902    1.000000    
    246 O     s    0.530321 *  0.772042 *  0.455527 *  -2.86902    1.000000    
    247 O     s    0.431297 *  0.722530 *  0.348529 *  -2.86902    1.000000    
    248 O     s    0.574199 *  0.293981 *  0.448544 *  -2.86902    1.000000    
    249 O     s    0.597307 *  0.993214 *  0.875251 *  -2.86902    1.000000    
    250 O     s    0.860502 *  0.577210 *  0.447660 *  -2.86902    1.000000    
    251 O     s    0.911351 *  0.462557 *  0.449920 *  -2.86902    1.000000    
    252 O     s    0.002603 *  0.612834 *  0.505002 *  -2.86902    1.000000    
    253 O     s    0.144703 *  0.439156 *  0.947660 *  -2.86902    1.000000    
    254 O     s    0.669269 *  0.341517 *  0.555066 *  -2.86902    1.000000    
    255 O     s    0.290582 *  0.438359 *  0.161192 *  -2.86902    1.000000    
    256 O     s    0.454002 *  0.556784 *  0.163961 *  -2.86902    1.000000    
    257 O     s    0.388682 *  0.433789 *  0.255002 *  -2.86902    1.000000    
    258 O     s    0.407899 *  0.398510 *  0.134753 *  -2.86902    1.000000    
    259 O     s    0.144799 *  0.720204 *  0.348812 *  -2.86902    1.000000    
    260 O     s    0.238744 *  0.772042 *  0.455527 *  -2.86902    1.000000    
    261 O     s    0.288256 *  0.722530 *  0.348529 *  -2.86902    1.000000    
    262 O     s    0.716804 *  0.293981 *  0.448544 *  -2.86902    1.000000    
    263 O     s    0.017572 *  0.617857 *  0.875251 *  -2.86902    1.000000    
    264 O     s    0.433576 *  0.297056 *  0.447660 *  -2.86902    1.000000    
    265 O     s    0.548228 *  0.462557 *  0.449920 *  -2.86902    1.000000    
    266 O     s    0.397952 *  0.403532 *  0.505002 *  -2.86902    1.000000    
    267 O     s    0.571629 *  0.719311 *  0.947660 *  -2.86902    1.000000    
    268 O     s    0.572427 *  0.865987 *  0.161192 *  -2.86902    1.000000    
    269 O     s    0.454002 *  0.910981 *  0.163961 *  -2.86902    1.000000    
    270 O     s    0.576996 *  0.968656 *  0.255002 *  -2.86902    1.000000    
    271 O     s    0.612276 *  0.023153 *  0.134753 *  -2.86902    1.000000    
    272 O     s    0.290582 *  0.438359 *  0.348812 *  -2.86902    1.000000    
    273 O     s    0.238744 *  0.480465 *  0.455527 *  -2.86902    1.000000    
    274 O     s    0.288256 *  0.579489 *  0.348529 *  -2.86902    1.000000    
    275 O     s    0.716804 *  0.436586 *  0.448544 *  -2.86902    1.000000    
    276 O     s    0.392929 *  0.413479 *  0.875251 *  -2.86902    1.000000    
    277 O     s    0.713730 *  0.150284 *  0.447660 *  -2.86902    1.000000    
    278 O     s    0.548228 *  0.099435 *  0.449920 *  -2.86902    1.000000    
    279 O     s    0.607254 *  0.008183 *  0.505002 *  -2.86902    1.000000    
    280 O     s    0.291475 *  0.866083 *  0.947660 *  -2.86902    1.000000    
    281 O     s    0.290582 *  0.865987 *  0.348812 *  -2.86902    1.000000    
    282 O     s    0.454002 *  0.910981 *  0.346043 *  -2.86902    1.000000    
    283 O     s    0.388682 *  0.968656 *  0.255002 *  -2.86902    1.000000    
    284 O     s    0.407899 *  0.023153 *  0.375251 *  -2.86902    1.000000    
    285 O     s    0.144799 *  0.438359 *  0.161192 *  -2.86902    1.000000    
    286 O     s    0.238744 *  0.480465 *  0.054477 *  -2.86902    1.000000    
    287 O     s    0.288256 *  0.579489 *  0.161475 *  -2.86902    1.000000    
    288 O     s    0.716804 *  0.436586 *  0.061460 *  -2.86902    1.000000    
    289 O     s    0.017572 *  0.413479 *  0.634753 *  -2.86902    1.000000    
    290 O     s    0.433576 *  0.150284 *  0.062344 *  -2.86902    1.000000    
    291 O     s    0.548228 *  0.099435 *  0.060084 *  -2.86902    1.000000    
    292 O     s    0.397952 *  0.008183 *  0.005002 *  -2.86902    1.000000    
    293 O     s    0.571629 *  0.866083 *  0.562343 *  -2.86902    1.000000    
    294 O     s    0.669269 *  0.341517 *  0.954938 *  -2.86902    1.000000    
    295 O     s    0.144799 *  0.438359 *  0.348812 *  -2.86902    1.000000    
    296 O     s    0.099805 *  0.556784 *  0.346043 *  -2.86902    1.000000    
    297 O     s    0.042129 *  0.433789 *  0.255002 *  -2.86902    1.000000    
    298 O     s    0.987633 *  0.398510 *  0.375251 *  -2.86902    1.000000    
    299 O     s    0.572427 *  0.720204 *  0.161192 *  -2.86902    1.000000    
    300 O     s    0.530321 *  0.772042 *  0.054477 *  -2.86902    1.000000    
    301 O     s    0.431297 *  0.722530 *  0.161475 *  -2.86902    1.000000    
    302 O     s    0.574199 *  0.293981 *  0.061460 *  -2.86902    1.000000    
    303 O     s    0.597307 *  0.617857 *  0.634753 *  -2.86902    1.000000    
    304 O     s    0.860502 *  0.297056 *  0.062344 *  -2.86902    1.000000    
    305 O     s    0.911351 *  0.462557 *  0.060084 *  -2.86902    1.000000    
    306 O     s    0.002603 *  0.403532 *  0.005002 *  -2.86902    1.000000    
    307 O     s    0.144703 *  0.719311 *  0.562343 *  -2.86902    1.000000    
    308 O     s    0.572427 *  0.720204 *  0.348812 *  -2.86902    1.000000    
    309 O     s    0.454002 *  0.556784 *  0.346043 *  -2.86902    1.000000    
    310 O     s    0.576996 *  0.622103 *  0.255002 *  -2.86902    1.000000    
    311 O     s    0.612276 *  0.602887 *  0.375251 *  -2.86902    1.000000    
    312 O     s    0.290582 *  0.865987 *  0.161192 *  -2.86902    1.000000    
    313 O     s    0.238744 *  0.772042 *  0.054477 *  -2.86902    1.000000    
    314 O     s    0.288256 *  0.722530 *  0.161475 *  -2.86902    1.000000    
    315 O     s    0.716804 *  0.293981 *  0.061460 *  -2.86902    1.000000    
    316 O     s    0.392929 *  0.993214 *  0.634753 *  -2.86902    1.000000    
    317 O     s    0.713730 *  0.577210 *  0.062344 *  -2.86902    1.000000    
    318 O     s    0.548228 *  0.462557 *  0.060084 *  -2.86902    1.000000    
    319 O     s    0.607254 *  0.612834 *  0.005002 *  -2.86902    1.000000    
    320 O     s    0.291475 *  0.439156 *  0.562343 *  -2.86902    1.000000    
    321 O     s    0.860406 *  0.296163 *  0.848812 *  -2.86902    1.000000    
    322 O     s    0.905400 *  0.459582 *  0.846043 *  -2.86902    1.000000    
    323 O     s    0.963076 *  0.394263 *  0.755002 *  -2.86902    1.000000    
    324 O     s    0.017572 *  0.413479 *  0.875251 *  -2.86902    1.000000    
    325 O     s    0.432779 *  0.150380 *  0.661192 *  -2.86902    1.000000    
    326 O     s    0.474885 *  0.244324 *  0.554477 *  -2.86902    1.000000    
    327 O     s    0.573909 *  0.293836 *  0.661475 *  -2.86902    1.000000    
    328 O     s    0.431006 *  0.722385 *  0.561460 *  -2.86902    1.000000    
    329 O     s    0.407899 *  0.023153 *  0.134753 *  -2.86902    1.000000    
    330 O     s    0.144703 *  0.439156 *  0.562343 *  -2.86902    1.000000    
    331 O     s    0.093854 *  0.553809 *  0.560084 *  -2.86902    1.000000    
    332 O     s    0.002603 *  0.403532 *  0.505002 *  -2.86902    1.000000    
    333 O     s    0.860502 *  0.577210 *  0.062344 *  -2.86902    1.000000    
    334 O     s    0.335936 *  0.674850 *  0.454938 *  -2.86902    1.000000    
    335 O     s    0.714623 *  0.578007 *  0.848812 *  -2.86902    1.000000    
    336 O     s    0.551204 *  0.459582 *  0.846043 *  -2.86902    1.000000    
    337 O     s    0.616523 *  0.582577 *  0.755002 *  -2.86902    1.000000    
    338 O     s    0.597307 *  0.617857 *  0.875251 *  -2.86902    1.000000    
    339 O     s    0.860406 *  0.296163 *  0.661192 *  -2.86902    1.000000    
    340 O     s    0.766462 *  0.244324 *  0.554477 *  -2.86902    1.000000    
    341 O     s    0.716950 *  0.293836 *  0.661475 *  -2.86902    1.000000    
    342 O     s    0.288401 *  0.722385 *  0.561460 *  -2.86902    1.000000    
    343 O     s    0.987633 *  0.398510 *  0.134753 *  -2.86902    1.000000    
    344 O     s    0.571629 *  0.719311 *  0.562343 *  -2.86902    1.000000    
    345 O     s    0.456977 *  0.553809 *  0.560084 *  -2.86902    1.000000    
    346 O     s    0.607254 *  0.612834 *  0.505002 *  -2.86902    1.000000    
    347 O     s    0.433576 *  0.297056 *  0.062344 *  -2.86902    1.000000    
    348 O     s    0.432779 *  0.150380 *  0.848812 *  -2.86902    1.000000    
    349 O     s    0.551204 *  0.105386 *  0.846043 *  -2.86902    1.000000    
    350 O     s    0.428209 *  0.047710 *  0.755002 *  -2.86902    1.000000    
    351 O     s    0.392929 *  0.993214 *  0.875251 *  -2.86902    1.000000    
    352 O     s    0.714623 *  0.578007 *  0.661192 *  -2.86902    1.000000    
    353 O     s    0.766462 *  0.535901 *  0.554477 *  -2.86902    1.000000    
    354 O     s    0.716950 *  0.436877 *  0.661475 *  -2.86902    1.000000    
    355 O     s    0.288401 *  0.579780 *  0.561460 *  -2.86902    1.000000    
    356 O     s    0.612276 *  0.602887 *  0.134753 *  -2.86902    1.000000    
    357 O     s    0.291475 *  0.866083 *  0.562343 *  -2.86902    1.000000    
    358 O     s    0.456977 *  0.916932 *  0.560084 *  -2.86902    1.000000    
    359 O     s    0.397952 *  0.008183 *  0.505002 *  -2.86902    1.000000    
    360 O     s    0.713730 *  0.150284 *  0.062344 *  -2.86902    1.000000    
    361 O     s    0.714623 *  0.150380 *  0.661192 *  -2.86902    1.000000    
    362 O     s    0.551204 *  0.105386 *  0.663961 *  -2.86902    1.000000    
    363 O     s    0.616523 *  0.047710 *  0.755002 *  -2.86902    1.000000    
    364 O     s    0.597307 *  0.993214 *  0.634753 *  -2.86902    1.000000    
    365 O     s    0.860406 *  0.578007 *  0.848812 *  -2.86902    1.000000    
    366 O     s    0.766462 *  0.535901 *  0.955527 *  -2.86902    1.000000    
    367 O     s    0.716950 *  0.436877 *  0.848529 *  -2.86902    1.000000    
    368 O     s    0.288401 *  0.579780 *  0.948544 *  -2.86902    1.000000    
    369 O     s    0.987633 *  0.602887 *  0.375251 *  -2.86902    1.000000    
    370 O     s    0.571629 *  0.866083 *  0.947660 *  -2.86902    1.000000    
    371 O     s    0.456977 *  0.916932 *  0.949920 *  -2.86902    1.000000    
    372 O     s    0.607254 *  0.008183 *  0.005002 *  -2.86902    1.000000    
    373 O     s    0.433576 *  0.150284 *  0.447660 *  -2.86902    1.000000    
    374 O     s    0.335936 *  0.674850 *  0.055066 *  -2.86902    1.000000    
    375 O     s    0.860406 *  0.578007 *  0.661192 *  -2.86902    1.000000    
    376 O     s    0.905400 *  0.459582 *  0.663961 *  -2.86902    1.000000    
    377 O     s    0.963076 *  0.582577 *  0.755002 *  -2.86902    1.000000    
    378 O     s    0.017572 *  0.617857 *  0.634753 *  -2.86902    1.000000    
    379 O     s    0.432779 *  0.296163 *  0.848812 *  -2.86902    1.000000    
    380 O     s    0.474885 *  0.244324 *  0.955527 *  -2.86902    1.000000    
    381 O     s    0.573909 *  0.293836 *  0.848529 *  -2.86902    1.000000    
    382 O     s    0.431006 *  0.722385 *  0.948544 *  -2.86902    1.000000    
    383 O     s    0.407899 *  0.398510 *  0.375251 *  -2.86902    1.000000    
    384 O     s    0.144703 *  0.719311 *  0.947660 *  -2.86902    1.000000    
    385 O     s    0.093854 *  0.553809 *  0.949920 *  -2.86902    1.000000    
    386 O     s    0.002603 *  0.612834 *  0.005002 *  -2.86902    1.000000    
    387 O     s    0.860502 *  0.297056 *  0.447660 *  -2.86902    1.000000    
    388 O     s    0.432779 *  0.296163 *  0.661192 *  -2.86902    1.000000    
    389 O     s    0.551204 *  0.459582 *  0.663961 *  -2.86902    1.000000    
    390 O     s    0.428209 *  0.394263 *  0.755002 *  -2.86902    1.000000    
    391 O     s    0.392929 *  0.413479 *  0.634753 *  -2.86902    1.000000    
    392 O     s    0.714623 *  0.150380 *  0.848812 *  -2.86902    1.000000    
    393 O     s    0.766462 *  0.244324 *  0.955527 *  -2.86902    1.000000    
    394 O     s    0.716950 *  0.293836 *  0.848529 *  -2.86902    1.000000    
    395 O     s    0.288401 *  0.722385 *  0.948544 *  -2.86902    1.000000    
    396 O     s    0.612276 *  0.023153 *  0.375251 *  -2.86902    1.000000    
    397 O     s    0.291475 *  0.439156 *  0.947660 *  -2.86902    1.000000    
    398 O     s    0.456977 *  0.553809 *  0.949920 *  -2.86902    1.000000    
    399 O     s    0.397952 *  0.403532 *  0.005002 *  -2.86902    1.000000    
    400 O     s    0.713730 *  0.577210 *  0.447660 *  -2.86902    1.000000    
--------------------------------------------------------------------------------



********************************************************************************
*  General input information                                                   *
********************************************************************************

  Species output for all configurations : 

--------------------------------------------------------------------------------
  Species    Type    Atomic    Atomic    Charge       Radii (Angs)     Library
                     Number     Mass       (e)     Cova   Ionic  VDW   Symbol
--------------------------------------------------------------------------------
    O        Core        8      16.00   0.869020   0.730  0.000  1.360 O        
    O        Shell       8       0.00  -2.869020   0.730  0.000  0.000 O        
    Si       Core       14      28.09   4.000000   1.200  0.000  2.100 Si       
--------------------------------------------------------------------------------


  Lattice summation method               =    Ewald          (3-D)
                                         =    Parry          (2-D)
                                         =    Saunders et al (1-D)
  Accuracy factor for lattice sums       =   12.000


  Analytic derivatives to be used

  Time limit = Infinity

  Maximum range for interatomic potentials =    100000.000000 Angstroms

  General interatomic potentials :

--------------------------------------------------------------------------------
Atom  Types   Potential      Parameter       Value         Units   Cutoffs(Ang)
  1     2                                                            Min /  Max 
--------------------------------------------------------------------------------
Si   c O    s Buckingham    Buckingham A     1283.9070    eV        0.000 10.000
                            Buckingham rho  0.32052000    Ang       
                            Buckingham C     10.661580    eV*Ang^6  
--------------------------------------------------------------------------------
O    s O    s Buckingham    Buckingham A     22764.000    eV        0.000 12.000
                            Buckingham rho  0.14900000    Ang       
                            Buckingham C     27.879000    eV*Ang^6  
--------------------------------------------------------------------------------
O    c O    s Spring (c-s)  Spring k 2       74.920000    eV*Ang^-2 0.000  1.100
                            Spring k 4       0.0000000    eV*Ang^-4 
--------------------------------------------------------------------------------

  General Three-body potentials :

--------------------------------------------------------------------------------
  Atoms       Potential      Parameter       Value         Units   Cutoffs(Ang)
  1 / 2 / 3                                                          Min /  Max 
--------------------------------------------------------------------------------
Si    core    Harmonic      Three-body cnst  2.0972400    eV*rad^-2 0.000  1.900
O     shel                  Three-body angl  109.47000    degrees   0.000  1.900
O     shel                  Three-body k4    0.0000000    eV*rad^-4 0.000  3.500
                            Three-body k3    0.0000000    eV*rad^-3 
--------------------------------------------------------------------------------
Si    core    Harmonic      Three-body cnst  2.0972400    eV*rad^-2 0.000  1.900
O     shel                  Three-body angl  109.47000    degrees   0.000  1.900
õ(    shel                  Three-body k4    0.0000000    eV*rad^-4 0.000  3.500
                            Three-body k3    0.0000000    eV*rad^-3 
--------------------------------------------------------------------------------
Si    core    Harmonic      Three-body cnst  2.0972400    eV*rad^-2 0.000  1.900
õ(    shel                  Three-body angl  109.47000    degrees   0.000  1.900
õ(    shel                  Three-body k4    0.0000000    eV*rad^-4 0.000  3.500
                            Three-body k3    0.0000000    eV*rad^-3 
--------------------------------------------------------------------------------

********************************************************************************
*  Output for configuration   1 : ReferenceDataBase/8323211_111                *
********************************************************************************


  Components of energy : 

--------------------------------------------------------------------------------
  Interatomic potentials     =        2504.88014939 eV    
  Three-body potentials      =           0.45629451 eV    
  Monopole - monopole (real) =      -10117.30545010 eV    
  Monopole - monopole (recip)=       -2536.41584708 eV    
  Monopole - monopole (total)=      -12653.72129718 eV    
--------------------------------------------------------------------------------
  Total lattice energy       =      -10148.38485328 eV    
--------------------------------------------------------------------------------
  Total lattice energy       =         -979164.0061 kJ/(mole unit cells)
--------------------------------------------------------------------------------


  Number of variables =      480

  Maximum number of calculations  =           500
  Maximum Hessian update interval =            10
  Maximum step size               =   0.100000000
  Maximum parameter tolerance     =   0.000010000
  Maximum function  tolerance     =   0.000010000
  Maximum gradient  tolerance     =   0.001000000
  Maximum gradient  component     =   0.010000000

  Newton-Raphson optimiser to be used

  BFGS hessian update to be used

  Lower half triangular hessian to be used

  Minimiser to switch to RFO
  When gradient norm is less than     0.080000

  Switch max step size to       0.30000000 when gnorm is less than     0.005000

  Shell only optimisation

  Dumpfile to be written after every cycle

  Start of bulk optimisation :

  Cycle:      0 Energy:    -10148.384853  Gnorm:      7.868788  CPU:    2.075
  ** Hessian calculated **
  Cycle:      1 Energy:    -10276.759546  Gnorm:      1.513563  CPU:    4.897
  ** Hessian calculated **
  Cycle:      2 Energy:    -10280.917166  Gnorm:      0.604722  CPU:    8.762
  Cycle:      3 Energy:    -10281.510044  Gnorm:      0.302068  CPU:   10.642
  Cycle:      4 Energy:    -10281.658023  Gnorm:      0.150983  CPU:   12.527
  Cycle:      5 Energy:    -10281.694999  Gnorm:      0.075479  CPU:   14.400
  ** Hessian has required structure
  ** Hessian has required structure
  Cycle:      6 Energy:    -10281.704296  Gnorm:      0.037486  CPU:   18.539
  ** Hessian has required structure
  Cycle:      7 Energy:    -10281.706578  Gnorm:      0.018617  CPU:   20.581
  ** Hessian has required structure
  Cycle:      8 Energy:    -10281.707139  Gnorm:      0.009247  CPU:   22.552
  ** Hessian has required structure
  Cycle:      9 Energy:    -10281.707232  Gnorm:      0.006454  CPU:   23.977
  ** Hessian has required structure
  Cycle:     10 Energy:    -10281.707278  Gnorm:      0.004505  CPU:   25.393
  ** Hessian has required structure
  Cycle:     11 Energy:    -10281.707320  Gnorm:      0.000807  CPU:   27.071
  ** Hessian has required structure


  **** Optimisation achieved ****


  Final energy =  -10281.70732124 eV      
  Final Gnorm  =       0.00008069

  Components of energy : 

--------------------------------------------------------------------------------
  Interatomic potentials     =        2806.12324190 eV    
  Three-body potentials      =           1.81472356 eV    
  Monopole - monopole (real) =       -9490.66003037 eV    
  Monopole - monopole (recip)=       -3598.98525633 eV    
  Monopole - monopole (total)=      -13089.64528670 eV    
--------------------------------------------------------------------------------
  Total lattice energy       =      -10281.70732124 eV    
--------------------------------------------------------------------------------
  Total lattice energy       =         -992027.5862 kJ/(mole unit cells)
--------------------------------------------------------------------------------

  Final fractional coordinates of atoms :

--------------------------------------------------------------------------------
   No.  Atomic        x           y          z          Radius
        Label       (Frac)      (Frac)     (Frac)       (Angs) 
--------------------------------------------------------------------------------
     1  Si    c     0.069675    0.625790    0.179031    0.000000
     2  Si    c     0.526891    0.770327    0.376784    0.000000
     3  Si    c     0.620209    0.075256    0.830973    0.000000
     4  Si    c     0.940971    0.562695    0.444340    0.000000
     5  Si    c     0.240487    0.483952    0.975407    0.000000
     6  Si    c     0.448091    0.069815    0.444340    0.000000
     7  O     c     0.144799    0.720204    0.161192    0.000000
     8  O     c     0.099805    0.556784    0.163961    0.000000
     9  O     c     0.042129    0.622103    0.255002    0.000000
    10  O     c     0.987633    0.602887    0.134753    0.000000
    11  O     c     0.572427    0.865987    0.348812    0.000000
    12  O     c     0.530321    0.772042    0.455527    0.000000
    13  O     c     0.431297    0.722530    0.348529    0.000000
    14  O     c     0.574199    0.293981    0.448544    0.000000
    15  O     c     0.597307    0.993214    0.875251    0.000000
    16  O     c     0.860502    0.577210    0.447660    0.000000
    17  O     c     0.911351    0.462557    0.449920    0.000000
    18  O     c     0.002603    0.612834    0.505002    0.000000
    19  O     c     0.144703    0.439156    0.947660    0.000000
    20  Si    c     0.669269    0.341517    0.476159    0.000000
    21  Si    c     0.669269    0.341517    0.876169    0.000000
    22  O     c     0.669269    0.341517    0.555066    0.000000
    23  Si    c     0.384996    0.457649    0.179031    0.000000
    24  Si    c     0.240459    0.770327    0.376784    0.000000
    25  Si    c     0.935530    0.558717    0.830973    0.000000
    26  Si    c     0.448091    0.392040    0.444340    0.000000
    27  Si    c     0.526833    0.770298    0.975407    0.000000
    28  Si    c     0.940971    0.392040    0.444340    0.000000
    29  O     c     0.290582    0.438359    0.161192    0.000000
    30  O     c     0.454002    0.556784    0.163961    0.000000
    31  O     c     0.388682    0.433789    0.255002    0.000000
    32  O     c     0.407899    0.398510    0.134753    0.000000
    33  O     c     0.144799    0.720204    0.348812    0.000000
    34  O     c     0.238744    0.772042    0.455527    0.000000
    35  O     c     0.288256    0.722530    0.348529    0.000000
    36  O     c     0.716804    0.293981    0.448544    0.000000
    37  O     c     0.017572    0.617857    0.875251    0.000000
    38  O     c     0.433576    0.297056    0.447660    0.000000
    39  O     c     0.548228    0.462557    0.449920    0.000000
    40  O     c     0.397952    0.403532    0.505002    0.000000
    41  O     c     0.571629    0.719311    0.947660    0.000000
    42  Si    c     0.553137    0.941111    0.179031    0.000000
    43  Si    c     0.240459    0.483895    0.376784    0.000000
    44  Si    c     0.452068    0.390577    0.830973    0.000000
    45  Si    c     0.618746    0.069815    0.444340    0.000000
    46  Si    c     0.240487    0.770298    0.975407    0.000000
    47  Si    c     0.618746    0.562694    0.444340    0.000000
    48  O     c     0.572427    0.865987    0.161192    0.000000
    49  O     c     0.454002    0.910981    0.163961    0.000000
    50  O     c     0.576996    0.968656    0.255002    0.000000
    51  O     c     0.612276    0.023153    0.134753    0.000000
    52  O     c     0.290582    0.438359    0.348812    0.000000
    53  O     c     0.238744    0.480465    0.455527    0.000000
    54  O     c     0.288256    0.579489    0.348529    0.000000
    55  O     c     0.716804    0.436586    0.448544    0.000000
    56  O     c     0.392929    0.413479    0.875251    0.000000
    57  O     c     0.713730    0.150284    0.447660    0.000000
    58  O     c     0.548228    0.099435    0.449920    0.000000
    59  O     c     0.607254    0.008183    0.505002    0.000000
    60  O     c     0.291475    0.866083    0.947660    0.000000
    61  Si    c     0.384996    0.941111    0.330973    0.000000
    62  Si    c     0.240459    0.483895    0.133220    0.000000
    63  Si    c     0.935530    0.390577    0.679031    0.000000
    64  Si    c     0.448091    0.069815    0.065664    0.000000
    65  Si    c     0.526833    0.770298    0.534596    0.000000
    66  Si    c     0.940971    0.562695    0.065664    0.000000
    67  O     c     0.290582    0.865987    0.348812    0.000000
    68  O     c     0.454002    0.910981    0.346043    0.000000
    69  O     c     0.388682    0.968656    0.255002    0.000000
    70  O     c     0.407899    0.023153    0.375251    0.000000
    71  O     c     0.144799    0.438359    0.161192    0.000000
    72  O     c     0.238744    0.480465    0.054477    0.000000
    73  O     c     0.288256    0.579489    0.161475    0.000000
    74  O     c     0.716804    0.436586    0.061460    0.000000
    75  O     c     0.017572    0.413479    0.634753    0.000000
    76  O     c     0.433576    0.150284    0.062344    0.000000
    77  O     c     0.548228    0.099435    0.060084    0.000000
    78  O     c     0.397952    0.008183    0.005002    0.000000
    79  O     c     0.571629    0.866083    0.562343    0.000000
    80  Si    c     0.669269    0.341517    0.033844    0.000000
    81  Si    c     0.669269    0.341517    0.633834    0.000000
    82  O     c     0.669269    0.341517    0.954938    0.000000
    83  Si    c     0.069675    0.457649    0.330973    0.000000
    84  Si    c     0.526891    0.770327    0.133220    0.000000
    85  Si    c     0.620209    0.558717    0.679031    0.000000
    86  Si    c     0.940971    0.392040    0.065664    0.000000
    87  Si    c     0.240487    0.770298    0.534596    0.000000
    88  Si    c     0.448091    0.392040    0.065664    0.000000
    89  O     c     0.144799    0.438359    0.348812    0.000000
    90  O     c     0.099805    0.556784    0.346043    0.000000
    91  O     c     0.042129    0.433789    0.255002    0.000000
    92  O     c     0.987633    0.398510    0.375251    0.000000
    93  O     c     0.572427    0.720204    0.161192    0.000000
    94  O     c     0.530321    0.772042    0.054477    0.000000
    95  O     c     0.431297    0.722530    0.161475    0.000000
    96  O     c     0.574199    0.293981    0.061460    0.000000
    97  O     c     0.597307    0.617857    0.634753    0.000000
    98  O     c     0.860502    0.297056    0.062344    0.000000
    99  O     c     0.911351    0.462557    0.060084    0.000000
   100  O     c     0.002603    0.403532    0.005002    0.000000
   101  O     c     0.144703    0.719311    0.562343    0.000000
   102  Si    c     0.553137    0.625790    0.330973    0.000000
   103  Si    c     0.240459    0.770327    0.133220    0.000000
   104  Si    c     0.452068    0.075256    0.679031    0.000000
   105  Si    c     0.618746    0.562695    0.065664    0.000000
   106  Si    c     0.240487    0.483952    0.534596    0.000000
   107  Si    c     0.618746    0.069815    0.065664    0.000000
   108  O     c     0.572427    0.720204    0.348812    0.000000
   109  O     c     0.454002    0.556784    0.346043    0.000000
   110  O     c     0.576996    0.622103    0.255002    0.000000
   111  O     c     0.612276    0.602887    0.375251    0.000000
   112  O     c     0.290582    0.865987    0.161192    0.000000
   113  O     c     0.238744    0.772042    0.054477    0.000000
   114  O     c     0.288256    0.722530    0.161475    0.000000
   115  O     c     0.716804    0.293981    0.061460    0.000000
   116  O     c     0.392929    0.993214    0.634753    0.000000
   117  O     c     0.713730    0.577210    0.062344    0.000000
   118  O     c     0.548228    0.462557    0.060084    0.000000
   119  O     c     0.607254    0.612834    0.005002    0.000000
   120  O     c     0.291475    0.439156    0.562343    0.000000
   121  Si    c     0.935530    0.390577    0.830973    0.000000
   122  Si    c     0.478314    0.246039    0.633220    0.000000
   123  Si    c     0.384996    0.941111    0.179031    0.000000
   124  Si    c     0.064235    0.453672    0.565664    0.000000
   125  Si    c     0.764718    0.532414    0.034596    0.000000
   126  Si    c     0.557114    0.946551    0.565664    0.000000
   127  O     c     0.860406    0.296163    0.848812    0.000000
   128  O     c     0.905400    0.459582    0.846043    0.000000
   129  O     c     0.963076    0.394263    0.755002    0.000000
   130  O     c     0.017572    0.413479    0.875251    0.000000
   131  O     c     0.432779    0.150380    0.661192    0.000000
   132  O     c     0.474885    0.244324    0.554477    0.000000
   133  O     c     0.573909    0.293836    0.661475    0.000000
   134  O     c     0.431006    0.722385    0.561460    0.000000
   135  O     c     0.407899    0.023153    0.134753    0.000000
   136  O     c     0.144703    0.439156    0.562343    0.000000
   137  O     c     0.093854    0.553809    0.560084    0.000000
   138  O     c     0.002603    0.403532    0.505002    0.000000
   139  O     c     0.860502    0.577210    0.062344    0.000000
   140  Si    c     0.335936    0.674850    0.533844    0.000000
   141  Si    c     0.335936    0.674850    0.133834    0.000000
   142  O     c     0.335936    0.674850    0.454938    0.000000
   143  Si    c     0.620209    0.558717    0.830973    0.000000
   144  Si    c     0.764747    0.246039    0.633220    0.000000
   145  Si    c     0.069675    0.457649    0.179031    0.000000
   146  Si    c     0.557114    0.624327    0.565664    0.000000
   147  Si    c     0.478372    0.246068    0.034596    0.000000
   148  Si    c     0.064235    0.624327    0.565664    0.000000
   149  O     c     0.714623    0.578007    0.848812    0.000000
   150  O     c     0.551204    0.459582    0.846043    0.000000
   151  O     c     0.616523    0.582577    0.755002    0.000000
   152  O     c     0.597307    0.617857    0.875251    0.000000
   153  O     c     0.860406    0.296163    0.661192    0.000000
   154  O     c     0.766462    0.244324    0.554477    0.000000
   155  O     c     0.716950    0.293836    0.661475    0.000000
   156  O     c     0.288401    0.722385    0.561460    0.000000
   157  O     c     0.987633    0.398510    0.134753    0.000000
   158  O     c     0.571629    0.719311    0.562343    0.000000
   159  O     c     0.456977    0.553809    0.560084    0.000000
   160  O     c     0.607254    0.612834    0.505002    0.000000
   161  O     c     0.433576    0.297056    0.062344    0.000000
   162  Si    c     0.452068    0.075256    0.830973    0.000000
   163  Si    c     0.764747    0.532472    0.633220    0.000000
   164  Si    c     0.553137    0.625790    0.179031    0.000000
   165  Si    c     0.386459    0.946551    0.565664    0.000000
   166  Si    c     0.764718    0.246068    0.034596    0.000000
   167  Si    c     0.386459    0.453672    0.565664    0.000000
   168  O     c     0.432779    0.150380    0.848812    0.000000
   169  O     c     0.551204    0.105386    0.846043    0.000000
   170  O     c     0.428209    0.047710    0.755002    0.000000
   171  O     c     0.392929    0.993214    0.875251    0.000000
   172  O     c     0.714623    0.578007    0.661192    0.000000
   173  O     c     0.766462    0.535901    0.554477    0.000000
   174  O     c     0.716950    0.436877    0.661475    0.000000
   175  O     c     0.288401    0.579780    0.561460    0.000000
   176  O     c     0.612276    0.602887    0.134753    0.000000
   177  O     c     0.291475    0.866083    0.562343    0.000000
   178  O     c     0.456977    0.916932    0.560084    0.000000
   179  O     c     0.397952    0.008183    0.505002    0.000000
   180  O     c     0.713730    0.150284    0.062344    0.000000
   181  Si    c     0.620209    0.075256    0.679031    0.000000
   182  Si    c     0.764747    0.532472    0.876784    0.000000
   183  Si    c     0.069675    0.625790    0.330973    0.000000
   184  Si    c     0.557114    0.946551    0.944340    0.000000
   185  Si    c     0.478372    0.246068    0.475407    0.000000
   186  Si    c     0.064235    0.453672    0.944340    0.000000
   187  O     c     0.714623    0.150380    0.661192    0.000000
   188  O     c     0.551204    0.105386    0.663961    0.000000
   189  O     c     0.616523    0.047710    0.755002    0.000000
   190  O     c     0.597307    0.993214    0.634753    0.000000
   191  O     c     0.860406    0.578007    0.848812    0.000000
   192  O     c     0.766462    0.535901    0.955527    0.000000
   193  O     c     0.716950    0.436877    0.848529    0.000000
   194  O     c     0.288401    0.579780    0.948544    0.000000
   195  O     c     0.987633    0.602887    0.375251    0.000000
   196  O     c     0.571629    0.866083    0.947660    0.000000
   197  O     c     0.456977    0.916932    0.949920    0.000000
   198  O     c     0.607254    0.008183    0.005002    0.000000
   199  O     c     0.433576    0.150284    0.447660    0.000000
   200  Si    c     0.335936    0.674850    0.976159    0.000000
   201  Si    c     0.335936    0.674850    0.376169    0.000000
   202  O     c     0.335936    0.674850    0.055066    0.000000
   203  Si    c     0.935530    0.558717    0.679031    0.000000
   204  Si    c     0.478314    0.246039    0.876784    0.000000
   205  Si    c     0.384996    0.457649    0.330973    0.000000
   206  Si    c     0.064235    0.624327    0.944340    0.000000
   207  Si    c     0.764718    0.246068    0.475407    0.000000
   208  Si    c     0.557114    0.624327    0.944340    0.000000
   209  O     c     0.860406    0.578007    0.661192    0.000000
   210  O     c     0.905400    0.459582    0.663961    0.000000
   211  O     c     0.963076    0.582577    0.755002    0.000000
   212  O     c     0.017572    0.617857    0.634753    0.000000
   213  O     c     0.432779    0.296163    0.848812    0.000000
   214  O     c     0.474885    0.244324    0.955527    0.000000
   215  O     c     0.573909    0.293836    0.848529    0.000000
   216  O     c     0.431006    0.722385    0.948544    0.000000
   217  O     c     0.407899    0.398510    0.375251    0.000000
   218  O     c     0.144703    0.719311    0.947660    0.000000
   219  O     c     0.093854    0.553809    0.949920    0.000000
   220  O     c     0.002603    0.612834    0.005002    0.000000
   221  O     c     0.860502    0.297056    0.447660    0.000000
   222  Si    c     0.452068    0.390577    0.679031    0.000000
   223  Si    c     0.764747    0.246039    0.876784    0.000000
   224  Si    c     0.553137    0.941111    0.330973    0.000000
   225  Si    c     0.386459    0.453672    0.944340    0.000000
   226  Si    c     0.764718    0.532414    0.475407    0.000000
   227  Si    c     0.386459    0.946551    0.944340    0.000000
   228  O     c     0.432779    0.296163    0.661192    0.000000
   229  O     c     0.551204    0.459582    0.663961    0.000000
   230  O     c     0.428209    0.394263    0.755002    0.000000
   231  O     c     0.392929    0.413479    0.634753    0.000000
   232  O     c     0.714623    0.150380    0.848812    0.000000
   233  O     c     0.766462    0.244324    0.955527    0.000000
   234  O     c     0.716950    0.293836    0.848529    0.000000
   235  O     c     0.288401    0.722385    0.948544    0.000000
   236  O     c     0.612276    0.023153    0.375251    0.000000
   237  O     c     0.291475    0.439156    0.947660    0.000000
   238  O     c     0.456977    0.553809    0.949920    0.000000
   239  O     c     0.397952    0.403532    0.005002    0.000000
   240  O     c     0.713730    0.577210    0.447660    0.000000
   241  O     s     0.147155    0.715403    0.160050    0.000000
   242  O     s     0.093648    0.553706    0.166940    0.000000
   243  O     s     0.048366    0.622899    0.255002    0.000000
   244  O     s     0.991641    0.600916    0.131984    0.000000
   245  O     s     0.565270    0.863631    0.349954    0.000000
   246  O     s     0.529494    0.771629    0.455368    0.000000
   247  O     s     0.431040    0.722402    0.354696    0.000000
   248  O     s     0.574340    0.294052    0.454702    0.000000
   249  O     s     0.595335    0.997221    0.878020    0.000000
   250  O     s     0.858700    0.570659    0.450390    0.000000
   251  O     s     0.917520    0.465642    0.448830    0.000000
   252  O     s     0.002603    0.608387    0.505002    0.000000
   253  O     s     0.146505    0.445707    0.950390    0.000000
   254  O     s     0.669269    0.341516    0.555133    0.000000
   255  O     s     0.295383    0.445516    0.160050    0.000000
   256  O     s     0.457080    0.553706    0.166940    0.000000
   257  O     s     0.387887    0.439230    0.255002    0.000000
   258  O     s     0.409870    0.404489    0.131984    0.000000
   259  O     s     0.147155    0.715403    0.349954    0.000000
   260  O     s     0.239157    0.771629    0.455368    0.000000
   261  O     s     0.288384    0.722402    0.354696    0.000000
   262  O     s     0.716734    0.294052    0.454702    0.000000
   263  O     s     0.013564    0.611877    0.878020    0.000000
   264  O     s     0.440127    0.301805    0.450390    0.000000
   265  O     s     0.545144    0.465642    0.448830    0.000000
   266  O     s     0.402399    0.407979    0.505002    0.000000
   267  O     s     0.565079    0.714562    0.950390    0.000000
   268  O     s     0.565270    0.863631    0.160050    0.000000
   269  O     s     0.457080    0.917138    0.166940    0.000000
   270  O     s     0.571556    0.962420    0.255002    0.000000
   271  O     s     0.606297    0.019145    0.131984    0.000000
   272  O     s     0.295383    0.445516    0.349954    0.000000
   273  O     s     0.239157    0.481291    0.455368    0.000000
   274  O     s     0.288384    0.579746    0.354696    0.000000
   275  O     s     0.716734    0.436446    0.454702    0.000000
   276  O     s     0.398908    0.415451    0.878020    0.000000
   277  O     s     0.708981    0.152086    0.450390    0.000000
   278  O     s     0.545144    0.093266    0.448830    0.000000
   279  O     s     0.602807    0.008183    0.505002    0.000000
   280  O     s     0.296224    0.864281    0.950390    0.000000
   281  O     s     0.295383    0.863631    0.349954    0.000000
   282  O     s     0.457080    0.917138    0.343063    0.000000
   283  O     s     0.387887    0.962420    0.255002    0.000000
   284  O     s     0.409870    0.019145    0.378020    0.000000
   285  O     s     0.147155    0.445516    0.160050    0.000000
   286  O     s     0.239157    0.481291    0.054636    0.000000
   287  O     s     0.288384    0.579746    0.155308    0.000000
   288  O     s     0.716734    0.436446    0.055302    0.000000
   289  O     s     0.013564    0.415451    0.631984    0.000000
   290  O     s     0.440127    0.152086    0.059614    0.000000
   291  O     s     0.545144    0.093266    0.061173    0.000000
   292  O     s     0.402399    0.008183    0.005002    0.000000
   293  O     s     0.565079    0.864281    0.559614    0.000000
   294  O     s     0.669269    0.341516    0.954870    0.000000
   295  O     s     0.147155    0.445516    0.349954    0.000000
   296  O     s     0.093648    0.553706    0.343063    0.000000
   297  O     s     0.048366    0.439230    0.255002    0.000000
   298  O     s     0.991641    0.404489    0.378020    0.000000
   299  O     s     0.565270    0.715403    0.160050    0.000000
   300  O     s     0.529494    0.771629    0.054636    0.000000
   301  O     s     0.431040    0.722402    0.155308    0.000000
   302  O     s     0.574340    0.294052    0.055302    0.000000
   303  O     s     0.595335    0.611877    0.631984    0.000000
   304  O     s     0.858700    0.301805    0.059614    0.000000
   305  O     s     0.917520    0.465642    0.061173    0.000000
   306  O     s     0.002603    0.407979    0.005002    0.000000
   307  O     s     0.146505    0.714562    0.559614    0.000000
   308  O     s     0.565270    0.715403    0.349954    0.000000
   309  O     s     0.457080    0.553706    0.343063    0.000000
   310  O     s     0.571556    0.622899    0.255002    0.000000
   311  O     s     0.606297    0.600916    0.378020    0.000000
   312  O     s     0.295383    0.863631    0.160050    0.000000
   313  O     s     0.239157    0.771629    0.054636    0.000000
   314  O     s     0.288384    0.722402    0.155308    0.000000
   315  O     s     0.716734    0.294052    0.055302    0.000000
   316  O     s     0.398908    0.997221    0.631984    0.000000
   317  O     s     0.708981    0.570659    0.059614    0.000000
   318  O     s     0.545144    0.465642    0.061173    0.000000
   319  O     s     0.602807    0.608387    0.005002    0.000000
   320  O     s     0.296224    0.445707    0.559614    0.000000
   321  O     s     0.858050    0.300963    0.849954    0.000000
   322  O     s     0.911558    0.462661    0.843063    0.000000
   323  O     s     0.956840    0.393467    0.755002    0.000000
   324  O     s     0.013564    0.415451    0.878020    0.000000
   325  O     s     0.439935    0.152736    0.660050    0.000000
   326  O     s     0.475711    0.244737    0.554636    0.000000
   327  O     s     0.574166    0.293965    0.655308    0.000000
   328  O     s     0.430865    0.722314    0.555302    0.000000
   329  O     s     0.409870    0.019145    0.131984    0.000000
   330  O     s     0.146505    0.445707    0.559614    0.000000
   331  O     s     0.087685    0.550725    0.561173    0.000000
   332  O     s     0.002603    0.407979    0.505002    0.000000
   333  O     s     0.858700    0.570659    0.059614    0.000000
   334  O     s     0.335936    0.674850    0.454870    0.000000
   335  O     s     0.709823    0.570851    0.849954    0.000000
   336  O     s     0.548125    0.462661    0.843063    0.000000
   337  O     s     0.617319    0.577136    0.755002    0.000000
   338  O     s     0.595335    0.611877    0.878020    0.000000
   339  O     s     0.858050    0.300963    0.660050    0.000000
   340  O     s     0.766049    0.244737    0.554636    0.000000
   341  O     s     0.716821    0.293965    0.655308    0.000000
   342  O     s     0.288471    0.722314    0.555302    0.000000
   343  O     s     0.991641    0.404489    0.131984    0.000000
   344  O     s     0.565079    0.714562    0.559614    0.000000
   345  O     s     0.460061    0.550725    0.561173    0.000000
   346  O     s     0.602807    0.608387    0.505002    0.000000
   347  O     s     0.440127    0.301805    0.059614    0.000000
   348  O     s     0.439935    0.152736    0.849954    0.000000
   349  O     s     0.548125    0.099228    0.843063    0.000000
   350  O     s     0.433650    0.053946    0.755002    0.000000
   351  O     s     0.398908    0.997221    0.878020    0.000000
   352  O     s     0.709823    0.570851    0.660050    0.000000
   353  O     s     0.766049    0.535075    0.554636    0.000000
   354  O     s     0.716821    0.436620    0.655308    0.000000
   355  O     s     0.288471    0.579921    0.555302    0.000000
   356  O     s     0.606297    0.600916    0.131984    0.000000
   357  O     s     0.296224    0.864281    0.559614    0.000000
   358  O     s     0.460061    0.923100    0.561173    0.000000
   359  O     s     0.402399    0.008183    0.505002    0.000000
   360  O     s     0.708981    0.152086    0.059614    0.000000
   361  O     s     0.709823    0.152736    0.660050    0.000000
   362  O     s     0.548125    0.099228    0.666940    0.000000
   363  O     s     0.617319    0.053946    0.755002    0.000000
   364  O     s     0.595335    0.997221    0.631984    0.000000
   365  O     s     0.858050    0.570851    0.849954    0.000000
   366  O     s     0.766049    0.535075    0.955368    0.000000
   367  O     s     0.716821    0.436620    0.854696    0.000000
   368  O     s     0.288471    0.579921    0.954702    0.000000
   369  O     s     0.991641    0.600916    0.378020    0.000000
   370  O     s     0.565079    0.864281    0.950390    0.000000
   371  O     s     0.460061    0.923100    0.948830    0.000000
   372  O     s     0.602807    0.008183    0.005002    0.000000
   373  O     s     0.440127    0.152086    0.450390    0.000000
   374  O     s     0.335936    0.674850    0.055133    0.000000
   375  O     s     0.858050    0.570851    0.660050    0.000000
   376  O     s     0.911558    0.462661    0.666940    0.000000
   377  O     s     0.956840    0.577136    0.755002    0.000000
   378  O     s     0.013564    0.611877    0.631984    0.000000
   379  O     s     0.439935    0.300963    0.849954    0.000000
   380  O     s     0.475711    0.244737    0.955368    0.000000
   381  O     s     0.574166    0.293965    0.854696    0.000000
   382  O     s     0.430865    0.722314    0.954702    0.000000
   383  O     s     0.409870    0.404489    0.378020    0.000000
   384  O     s     0.146505    0.714562    0.950390    0.000000
   385  O     s     0.087685    0.550725    0.948830    0.000000
   386  O     s     0.002603    0.608387    0.005002    0.000000
   387  O     s     0.858700    0.301805    0.450390    0.000000
   388  O     s     0.439935    0.300963    0.660050    0.000000
   389  O     s     0.548125    0.462661    0.666940    0.000000
   390  O     s     0.433650    0.393467    0.755002    0.000000
   391  O     s     0.398908    0.415451    0.631984    0.000000
   392  O     s     0.709823    0.152736    0.849954    0.000000
   393  O     s     0.766049    0.244737    0.955368    0.000000
   394  O     s     0.716821    0.293965    0.854696    0.000000
   395  O     s     0.288471    0.722314    0.954702    0.000000
   396  O     s     0.606297    0.019145    0.378020    0.000000
   397  O     s     0.296224    0.445707    0.950390    0.000000
   398  O     s     0.460061    0.550725    0.948830    0.000000
   399  O     s     0.402399    0.407979    0.005002    0.000000
   400  O     s     0.708981    0.570659    0.450390    0.000000
--------------------------------------------------------------------------------

  Final internal derivatives :

--------------------------------------------------------------------------------
   No.  Atomic          a             b             c           Radius
        Label          (eV)          (eV)          (eV)        (eV/Angs)
--------------------------------------------------------------------------------
      1 Si    c       0.000000      0.000000      0.000000      0.000000
      2 Si    c       0.000000      0.000000      0.000000      0.000000
      3 Si    c       0.000000      0.000000      0.000000      0.000000
      4 Si    c       0.000000      0.000000      0.000000      0.000000
      5 Si    c       0.000000      0.000000      0.000000      0.000000
      6 Si    c       0.000000      0.000000      0.000000      0.000000
      7 O     c       0.000000      0.000000      0.000000      0.000000
      8 O     c       0.000000      0.000000      0.000000      0.000000
      9 O     c       0.000000      0.000000      0.000000      0.000000
     10 O     c       0.000000      0.000000      0.000000      0.000000
     11 O     c       0.000000      0.000000      0.000000      0.000000
     12 O     c       0.000000      0.000000      0.000000      0.000000
     13 O     c       0.000000      0.000000      0.000000      0.000000
     14 O     c       0.000000      0.000000      0.000000      0.000000
     15 O     c       0.000000      0.000000      0.000000      0.000000
     16 O     c       0.000000      0.000000      0.000000      0.000000
     17 O     c       0.000000      0.000000      0.000000      0.000000
     18 O     c       0.000000      0.000000      0.000000      0.000000
     19 O     c       0.000000      0.000000      0.000000      0.000000
     20 Si    c       0.000000      0.000000      0.000000      0.000000
     21 Si    c       0.000000      0.000000      0.000000      0.000000
     22 O     c       0.000000      0.000000      0.000000      0.000000
     23 Si    c       0.000000      0.000000      0.000000      0.000000
     24 Si    c       0.000000      0.000000      0.000000      0.000000
     25 Si    c       0.000000      0.000000      0.000000      0.000000
     26 Si    c       0.000000      0.000000      0.000000      0.000000
     27 Si    c       0.000000      0.000000      0.000000      0.000000
     28 Si    c       0.000000      0.000000      0.000000      0.000000
     29 O     c       0.000000      0.000000      0.000000      0.000000
     30 O     c       0.000000      0.000000      0.000000      0.000000
     31 O     c       0.000000      0.000000      0.000000      0.000000
     32 O     c       0.000000      0.000000      0.000000      0.000000
     33 O     c       0.000000      0.000000      0.000000      0.000000
     34 O     c       0.000000      0.000000      0.000000      0.000000
     35 O     c       0.000000      0.000000      0.000000      0.000000
     36 O     c       0.000000      0.000000      0.000000      0.000000
     37 O     c       0.000000      0.000000      0.000000      0.000000
     38 O     c       0.000000      0.000000      0.000000      0.000000
     39 O     c       0.000000      0.000000      0.000000      0.000000
     40 O     c       0.000000      0.000000      0.000000      0.000000
     41 O     c       0.000000      0.000000      0.000000      0.000000
     42 Si    c       0.000000      0.000000      0.000000      0.000000
     43 Si    c       0.000000      0.000000      0.000000      0.000000
     44 Si    c       0.000000      0.000000      0.000000      0.000000
     45 Si    c       0.000000      0.000000      0.000000      0.000000
     46 Si    c       0.000000      0.000000      0.000000      0.000000
     47 Si    c       0.000000      0.000000      0.000000      0.000000
     48 O     c       0.000000      0.000000      0.000000      0.000000
     49 O     c       0.000000      0.000000      0.000000      0.000000
     50 O     c       0.000000      0.000000      0.000000      0.000000
     51 O     c       0.000000      0.000000      0.000000      0.000000
     52 O     c       0.000000      0.000000      0.000000      0.000000
     53 O     c       0.000000      0.000000      0.000000      0.000000
     54 O     c       0.000000      0.000000      0.000000      0.000000
     55 O     c       0.000000      0.000000      0.000000      0.000000
     56 O     c       0.000000      0.000000      0.000000      0.000000
     57 O     c       0.000000      0.000000      0.000000      0.000000
     58 O     c       0.000000      0.000000      0.000000      0.000000
     59 O     c       0.000000      0.000000      0.000000      0.000000
     60 O     c       0.000000      0.000000      0.000000      0.000000
     61 Si    c       0.000000      0.000000      0.000000      0.000000
     62 Si    c       0.000000      0.000000      0.000000      0.000000
     63 Si    c       0.000000      0.000000      0.000000      0.000000
     64 Si    c       0.000000      0.000000      0.000000      0.000000
     65 Si    c       0.000000      0.000000      0.000000      0.000000
     66 Si    c       0.000000      0.000000      0.000000      0.000000
     67 O     c       0.000000      0.000000      0.000000      0.000000
     68 O     c       0.000000      0.000000      0.000000      0.000000
     69 O     c       0.000000      0.000000      0.000000      0.000000
     70 O     c       0.000000      0.000000      0.000000      0.000000
     71 O     c       0.000000      0.000000      0.000000      0.000000
     72 O     c       0.000000      0.000000      0.000000      0.000000
     73 O     c       0.000000      0.000000      0.000000      0.000000
     74 O     c       0.000000      0.000000      0.000000      0.000000
     75 O     c       0.000000      0.000000      0.000000      0.000000
     76 O     c       0.000000      0.000000      0.000000      0.000000
     77 O     c       0.000000      0.000000      0.000000      0.000000
     78 O     c       0.000000      0.000000      0.000000      0.000000
     79 O     c       0.000000      0.000000      0.000000      0.000000
     80 Si    c       0.000000      0.000000      0.000000      0.000000
     81 Si    c       0.000000      0.000000      0.000000      0.000000
     82 O     c       0.000000      0.000000      0.000000      0.000000
     83 Si    c       0.000000      0.000000      0.000000      0.000000
     84 Si    c       0.000000      0.000000      0.000000      0.000000
     85 Si    c       0.000000      0.000000      0.000000      0.000000
     86 Si    c       0.000000      0.000000      0.000000      0.000000
     87 Si    c       0.000000      0.000000      0.000000      0.000000
     88 Si    c       0.000000      0.000000      0.000000      0.000000
     89 O     c       0.000000      0.000000      0.000000      0.000000
     90 O     c       0.000000      0.000000      0.000000      0.000000
     91 O     c       0.000000      0.000000      0.000000      0.000000
     92 O     c       0.000000      0.000000      0.000000      0.000000
     93 O     c       0.000000      0.000000      0.000000      0.000000
     94 O     c       0.000000      0.000000      0.000000      0.000000
     95 O     c       0.000000      0.000000      0.000000      0.000000
     96 O     c       0.000000      0.000000      0.000000      0.000000
     97 O     c       0.000000      0.000000      0.000000      0.000000
     98 O     c       0.000000      0.000000      0.000000      0.000000
     99 O     c       0.000000      0.000000      0.000000      0.000000
    100 O     c       0.000000      0.000000      0.000000      0.000000
    101 O     c       0.000000      0.000000      0.000000      0.000000
    102 Si    c       0.000000      0.000000      0.000000      0.000000
    103 Si    c       0.000000      0.000000      0.000000      0.000000
    104 Si    c       0.000000      0.000000      0.000000      0.000000
    105 Si    c       0.000000      0.000000      0.000000      0.000000
    106 Si    c       0.000000      0.000000      0.000000      0.000000
    107 Si    c       0.000000      0.000000      0.000000      0.000000
    108 O     c       0.000000      0.000000      0.000000      0.000000
    109 O     c       0.000000      0.000000      0.000000      0.000000
    110 O     c       0.000000      0.000000      0.000000      0.000000
    111 O     c       0.000000      0.000000      0.000000      0.000000
    112 O     c       0.000000      0.000000      0.000000      0.000000
    113 O     c       0.000000      0.000000      0.000000      0.000000
    114 O     c       0.000000      0.000000      0.000000      0.000000
    115 O     c       0.000000      0.000000      0.000000      0.000000
    116 O     c       0.000000      0.000000      0.000000      0.000000
    117 O     c       0.000000      0.000000      0.000000      0.000000
    118 O     c       0.000000      0.000000      0.000000      0.000000
    119 O     c       0.000000      0.000000      0.000000      0.000000
    120 O     c       0.000000      0.000000      0.000000      0.000000
    121 Si    c       0.000000      0.000000      0.000000      0.000000
    122 Si    c       0.000000      0.000000      0.000000      0.000000
    123 Si    c       0.000000      0.000000      0.000000      0.000000
    124 Si    c       0.000000      0.000000      0.000000      0.000000
    125 Si    c       0.000000      0.000000      0.000000      0.000000
    126 Si    c       0.000000      0.000000      0.000000      0.000000
    127 O     c       0.000000      0.000000      0.000000      0.000000
    128 O     c       0.000000      0.000000      0.000000      0.000000
    129 O     c       0.000000      0.000000      0.000000      0.000000
    130 O     c       0.000000      0.000000      0.000000      0.000000
    131 O     c       0.000000      0.000000      0.000000      0.000000
    132 O     c       0.000000      0.000000      0.000000      0.000000
    133 O     c       0.000000      0.000000      0.000000      0.000000
    134 O     c       0.000000      0.000000      0.000000      0.000000
    135 O     c       0.000000      0.000000      0.000000      0.000000
    136 O     c       0.000000      0.000000      0.000000      0.000000
    137 O     c       0.000000      0.000000      0.000000      0.000000
    138 O     c       0.000000      0.000000      0.000000      0.000000
    139 O     c       0.000000      0.000000      0.000000      0.000000
    140 Si    c       0.000000      0.000000      0.000000      0.000000
    141 Si    c       0.000000      0.000000      0.000000      0.000000
    142 O     c       0.000000      0.000000      0.000000      0.000000
    143 Si    c       0.000000      0.000000      0.000000      0.000000
    144 Si    c       0.000000      0.000000      0.000000      0.000000
[...]
    148 Si    c       0.000000      0.000000      0.000000      0.000000
    149 O     c       0.000000      0.000000      0.000000      0.000000
    150 O     c       0.000000      0.000000      0.000000      0.000000
    151 O     c       0.000000      0.000000      0.000000      0.000000
    152 O     c       0.000000      0.000000      0.000000      0.000000
    153 O     c       0.000000      0.000000      0.000000      0.000000
    154 O     c       0.000000      0.000000      0.000000      0.000000
    155 O     c       0.000000      0.000000      0.000000      0.000000
    156 O     c       0.000000      0.000000      0.000000      0.000000
    157 O     c       0.000000      0.000000      0.000000      0.000000
    158 O     c       0.000000      0.000000      0.000000      0.000000
    159 O     c       0.000000      0.000000      0.000000      0.000000
    160 O     c       0.000000      0.000000      0.000000      0.000000
    161 O     c       0.000000      0.000000      0.000000      0.000000
    162 Si    c       0.000000      0.000000      0.000000      0.000000
    163 Si    c       0.000000      0.000000      0.000000      0.000000
    164 Si    c       0.000000      0.000000      0.000000      0.000000
    165 Si    c       0.000000      0.000000      0.000000      0.000000
    166 Si    c       0.000000      0.000000      0.000000      0.000000
    167 Si    c       0.000000      0.000000      0.000000      0.000000
    168 O     c       0.000000      0.000000      0.000000      0.000000
    169 O     c       0.000000      0.000000      0.000000      0.000000
    170 O     c       0.000000      0.000000      0.000000      0.000000
    171 O     c       0.000000      0.000000      0.000000      0.000000
    172 O     c       0.000000      0.000000      0.000000      0.000000
    173 O     c       0.000000      0.000000      0.000000      0.000000
    174 O     c       0.000000      0.000000      0.000000      0.000000
    175 O     c       0.000000      0.000000      0.000000      0.000000
    176 O     c       0.000000      0.000000      0.000000      0.000000
    177 O     c       0.000000      0.000000      0.000000      0.000000
    178 O     c       0.000000      0.000000      0.000000      0.000000
    179 O     c       0.000000      0.000000      0.000000      0.000000
    180 O     c       0.000000      0.000000      0.000000      0.000000
    181 Si    c       0.000000      0.000000      0.000000      0.000000
    182 Si    c       0.000000      0.000000      0.000000      0.000000
    183 Si    c       0.000000      0.000000      0.000000      0.000000
    184 Si    c       0.000000      0.000000      0.000000      0.000000
    185 Si    c       0.000000      0.000000      0.000000      0.000000
    186 Si    c       0.000000      0.000000      0.000000      0.000000
    187 O     c       0.000000      0.000000      0.000000      0.000000
    188 O     c       0.000000      0.000000      0.000000      0.000000
    189 O     c       0.000000      0.000000      0.000000      0.000000
    190 O     c       0.000000      0.000000      0.000000      0.000000
    191 O     c       0.000000      0.000000      0.000000      0.000000
    192 O     c       0.000000      0.000000      0.000000      0.000000
    193 O     c       0.000000      0.000000      0.000000      0.000000
    194 O     c       0.000000      0.000000      0.000000      0.000000
    195 O     c       0.000000      0.000000      0.000000      0.000000
    196 O     c       0.000000      0.000000      0.000000      0.000000
    197 O     c       0.000000      0.000000      0.000000      0.000000
    198 O     c       0.000000      0.000000      0.000000      0.000000
    199 O     c       0.000000      0.000000      0.000000      0.000000
    200 Si    c       0.000000      0.000000      0.000000      0.000000
    201 Si    c       0.000000      0.000000      0.000000      0.000000
    202 O     c       0.000000      0.000000      0.000000      0.000000
    203 Si    c       0.000000      0.000000      0.000000      0.000000
    204 Si    c       0.000000      0.000000      0.000000      0.000000
    205 Si    c       0.000000      0.000000      0.000000      0.000000
    206 Si    c       0.000000      0.000000      0.000000      0.000000
    207 Si    c       0.000000      0.000000      0.000000      0.000000
    208 Si    c       0.000000      0.000000      0.000000      0.000000
    209 O     c       0.000000      0.000000      0.000000      0.000000
    210 O     c       0.000000      0.000000      0.000000      0.000000
    211 O     c       0.000000      0.000000      0.000000      0.000000
    212 O     c       0.000000      0.000000      0.000000      0.000000
    213 O     c       0.000000      0.000000      0.000000      0.000000
    214 O     c       0.000000      0.000000      0.000000      0.000000
    215 O     c       0.000000      0.000000      0.000000      0.000000
    216 O     c       0.000000      0.000000      0.000000      0.000000
    217 O     c       0.000000      0.000000      0.000000      0.000000
    218 O     c       0.000000      0.000000      0.000000      0.000000
    219 O     c       0.000000      0.000000      0.000000      0.000000
    220 O     c       0.000000      0.000000      0.000000      0.000000
    221 O     c       0.000000      0.000000      0.000000      0.000000
    222 Si    c       0.000000      0.000000      0.000000      0.000000
    223 Si    c       0.000000      0.000000      0.000000      0.000000
    224 Si    c       0.000000      0.000000      0.000000      0.000000
    225 Si    c       0.000000      0.000000      0.000000      0.000000
    226 Si    c       0.000000      0.000000      0.000000      0.000000
    227 Si    c       0.000000      0.000000      0.000000      0.000000
    228 O     c       0.000000      0.000000      0.000000      0.000000
    229 O     c       0.000000      0.000000      0.000000      0.000000
    230 O     c       0.000000      0.000000      0.000000      0.000000
    231 O     c       0.000000      0.000000      0.000000      0.000000
    232 O     c       0.000000      0.000000      0.000000      0.000000
    233 O     c       0.000000      0.000000      0.000000      0.000000
    234 O     c       0.000000      0.000000      0.000000      0.000000
    235 O     c       0.000000      0.000000      0.000000      0.000000
    236 O     c       0.000000      0.000000      0.000000      0.000000
    237 O     c       0.000000      0.000000      0.000000      0.000000
    238 O     c       0.000000      0.000000      0.000000      0.000000
    239 O     c       0.000000      0.000000      0.000000      0.000000
    240 O     c       0.000000      0.000000      0.000000      0.000000
    241 O     s      -0.002368      0.003082      0.000733      0.000000
    242 O     s       0.001634     -0.000107     -0.000963      0.000000
    243 O     s      -0.003287      0.002125     -0.000000      0.000000
    244 O     s      -0.002815      0.002603      0.001748      0.000000
    245 O     s       0.003008     -0.000869     -0.000733      0.000000
    246 O     s       0.001167     -0.000003      0.000141      0.000000
    247 O     s      -0.000157      0.000004     -0.003401      0.000000
    248 O     s       0.000079     -0.000004     -0.003743      0.000000
    249 O     s       0.002603     -0.002815     -0.001748      0.000000
    250 O     s      -0.000930      0.002658     -0.001870      0.000000
    251 O     s      -0.001903      0.000085     -0.000270      0.000000
    252 O     s      -0.001489      0.002839      0.000000      0.000000
    253 O     s       0.000930     -0.002658     -0.001870      0.000000
    254 O     s      -0.000000      0.000000     -0.000186      0.000000
    255 O     s      -0.000641     -0.002210      0.000732      0.000000
    256 O     s      -0.001741      0.001741     -0.000963      0.000000
    257 O     s       0.001372     -0.003326     -0.000000      0.000000
    258 O     s       0.000339     -0.002765      0.001748      0.000000
    259 O     s      -0.002368      0.003082     -0.000733      0.000000
    260 O     s      -0.001170      0.001170      0.000141      0.000000
    261 O     s       0.000163     -0.000163     -0.003401      0.000000
    262 O     s      -0.000085      0.000085     -0.003743      0.000000
    263 O     s       0.000163      0.002477     -0.001747      0.000000
    264 O     s      -0.001775     -0.000732     -0.001870      0.000000
    265 O     s       0.001988     -0.001988     -0.000271      0.000000
    266 O     s      -0.001349     -0.001349     -0.000000      0.000000
    267 O     s       0.001775      0.000732     -0.001870      0.000000
    268 O     s       0.003008     -0.000869      0.000733      0.000000
    269 O     s       0.000107     -0.001634     -0.000963      0.000000
    270 O     s       0.001915      0.001201      0.000000      0.000000
    271 O     s       0.002477      0.000163      0.001747      0.000000
    272 O     s      -0.000641     -0.002210     -0.000732      0.000000
    273 O     s       0.000003     -0.001167      0.000141      0.000000
    274 O     s      -0.000004      0.000157     -0.003401      0.000000
    275 O     s       0.000004     -0.000079     -0.003743      0.000000
    276 O     s      -0.002765      0.000339     -0.001748      0.000000
    277 O     s       0.002708     -0.001925     -0.001870      0.000000
    278 O     s      -0.000085      0.001903     -0.000270      0.000000
    279 O     s       0.002839     -0.001489     -0.000000      0.000000
    280 O     s      -0.002708      0.001925     -0.001870      0.000000
    281 O     s      -0.003082      0.002368     -0.000733      0.000000
    282 O     s       0.000107     -0.001634      0.000963      0.000000
    283 O     s      -0.002125      0.003287      0.000000      0.000000
    284 O     s      -0.002603      0.002815     -0.001748      0.000000
    285 O     s       0.000869     -0.003008      0.000733      0.000000
    286 O     s       0.000003     -0.001167     -0.000141      0.000000
    287 O     s      -0.000004      0.000157      0.003401      0.000000
    288 O     s       0.000004     -0.000079      0.003743      0.000000
    289 O     s       0.002815     -0.002603      0.001748      0.000000
    290 O     s      -0.002658      0.000930      0.001870      0.000000
    291 O     s      -0.000085      0.001903      0.000270      0.000000
    292 O     s      -0.002839      0.001489     -0.000000      0.000000
    293 O     s       0.002658     -0.000930      0.001870      0.000000
    294 O     s      -0.000000      0.000000      0.000186      0.000000
    295 O     s       0.000869     -0.003008     -0.000733      0.000000
    296 O     s       0.001634     -0.000107      0.000963      0.000000
    297 O     s      -0.001201     -0.001915     -0.000000      0.000000
    298 O     s      -0.000163     -0.002477     -0.001747      0.000000
    299 O     s       0.002210      0.000641      0.000732      0.000000
    300 O     s       0.001167     -0.000003     -0.000141      0.000000
    301 O     s      -0.000157      0.000004      0.003401      0.000000
    302 O     s       0.000079     -0.000004      0.003743      0.000000
    303 O     s      -0.000339      0.002765      0.001748      0.000000
    304 O     s       0.001925     -0.002708      0.001870      0.000000
    305 O     s      -0.001903      0.000085      0.000270      0.000000
    306 O     s       0.001489     -0.002839      0.000000      0.000000
    307 O     s      -0.001925      0.002708      0.001870      0.000000
    308 O     s       0.002210      0.000641     -0.000732      0.000000
    309 O     s      -0.001741      0.001741      0.000963      0.000000
    310 O     s       0.003326     -0.001372     -0.000000      0.000000
    311 O     s       0.002765     -0.000339     -0.001748      0.000000
    312 O     s      -0.003082      0.002368      0.000733      0.000000
    313 O     s      -0.001170      0.001170     -0.000141      0.000000
    314 O     s       0.000163     -0.000163      0.003401      0.000000
    315 O     s      -0.000085      0.000085      0.003743      0.000000
    316 O     s      -0.002477     -0.000163      0.001747      0.000000
    317 O     s       0.000732      0.001775      0.001870      0.000000
    318 O     s       0.001988     -0.001988      0.000271      0.000000
    319 O     s       0.001349      0.001349     -0.000000      0.000000
    320 O     s      -0.000732     -0.001775      0.001870      0.000000
    321 O     s       0.002368     -0.003082     -0.000733      0.000000
    322 O     s      -0.001634      0.000107      0.000963      0.000000
    323 O     s       0.003287     -0.002125      0.000000      0.000000
    324 O     s       0.002815     -0.002603     -0.001748      0.000000
    325 O     s      -0.003008      0.000869      0.000733      0.000000
    326 O     s      -0.001167      0.000003     -0.000141      0.000000
    327 O     s       0.000157     -0.000004      0.003401      0.000000
    328 O     s      -0.000079      0.000004      0.003743      0.000000
    329 O     s      -0.002603      0.002815      0.001748      0.000000
    330 O     s       0.000930     -0.002658      0.001870      0.000000
    331 O     s       0.001903     -0.000085      0.000270      0.000000
    332 O     s       0.001489     -0.002839     -0.000000      0.000000
    333 O     s      -0.000930      0.002658      0.001870      0.000000
    334 O     s       0.000000     -0.000000      0.000186      0.000000
    335 O     s       0.000641      0.002210     -0.000732      0.000000
    336 O     s       0.001741     -0.001741      0.000963      0.000000
    337 O     s      -0.001372      0.003326     -0.000000      0.000000
    338 O     s      -0.000339      0.002765     -0.001748      0.000000
    339 O     s       0.002368     -0.003082      0.000733      0.000000
    340 O     s       0.001170     -0.001170     -0.000141      0.000000
    341 O     s      -0.000163      0.000163      0.003401      0.000000
    342 O     s       0.000085     -0.000085      0.003743      0.000000
    343 O     s      -0.000163     -0.002477      0.001747      0.000000
    344 O     s       0.001775      0.000732      0.001870      0.000000
    345 O     s      -0.001988      0.001988      0.000271      0.000000
    346 O     s       0.001349      0.001349     -0.000000      0.000000
    347 O     s      -0.001775     -0.000732      0.001870      0.000000
    348 O     s      -0.003008      0.000869     -0.000733      0.000000
    349 O     s      -0.000107      0.001634      0.000963      0.000000
    350 O     s      -0.001915     -0.001201      0.000000      0.000000
    351 O     s      -0.002477     -0.000163     -0.001747      0.000000
    352 O     s       0.000641      0.002210      0.000732      0.000000
    353 O     s      -0.000003      0.001167     -0.000141      0.000000
    354 O     s       0.000004     -0.000157      0.003401      0.000000
    355 O     s      -0.000004      0.000079      0.003743      0.000000
    356 O     s       0.002765     -0.000339      0.001748      0.000000
    357 O     s      -0.002708      0.001925      0.001870      0.000000
    358 O     s       0.000085     -0.001903      0.000270      0.000000
    359 O     s      -0.002839      0.001489      0.000000      0.000000
    360 O     s       0.002708     -0.001925      0.001870      0.000000
    361 O     s       0.003082     -0.002368      0.000733      0.000000
    362 O     s      -0.000107      0.001634     -0.000963      0.000000
    363 O     s       0.002125     -0.003287      0.000000      0.000000
    364 O     s       0.002603     -0.002815      0.001748      0.000000
    365 O     s      -0.000869      0.003008     -0.000733      0.000000
    366 O     s      -0.000003      0.001167      0.000141      0.000000
    367 O     s       0.000004     -0.000157     -0.003401      0.000000
    368 O     s      -0.000004      0.000079     -0.003743      0.000000
    369 O     s      -0.002815      0.002603     -0.001748      0.000000
    370 O     s       0.002658     -0.000930     -0.001870      0.000000
    371 O     s       0.000085     -0.001903     -0.000270      0.000000
    372 O     s       0.002839     -0.001489      0.000000      0.000000
    373 O     s      -0.002658      0.000930     -0.001870      0.000000
    374 O     s       0.000000     -0.000000     -0.000186      0.000000
    375 O     s      -0.000869      0.003008      0.000733      0.000000
    376 O     s      -0.001634      0.000107     -0.000963      0.000000
    377 O     s       0.001201      0.001915      0.000000      0.000000
    378 O     s       0.000163      0.002477      0.001747      0.000000
    379 O     s      -0.002210     -0.000641     -0.000732      0.000000
    380 O     s      -0.001167      0.000003      0.000141      0.000000
    381 O     s       0.000157     -0.000004     -0.003401      0.000000
    382 O     s      -0.000079      0.000004     -0.003743      0.000000
    383 O     s       0.000339     -0.002765     -0.001748      0.000000
    384 O     s      -0.001925      0.002708     -0.001870      0.000000
    385 O     s       0.001903     -0.000085     -0.000270      0.000000
    386 O     s      -0.001489      0.002839     -0.000000      0.000000
    387 O     s       0.001925     -0.002708     -0.001870      0.000000
    388 O     s      -0.002210     -0.000641      0.000732      0.000000
    389 O     s       0.001741     -0.001741     -0.000963      0.000000
    390 O     s      -0.003326      0.001372      0.000000      0.000000
    391 O     s      -0.002765      0.000339      0.001748      0.000000
    392 O     s       0.003082     -0.002368     -0.000733      0.000000
    393 O     s       0.001170     -0.001170      0.000141      0.000000
    394 O     s      -0.000163      0.000163     -0.003401      0.000000
    395 O     s       0.000085     -0.000085     -0.003743      0.000000
    396 O     s       0.002477      0.000163     -0.001747      0.000000
    397 O     s      -0.000732     -0.001775     -0.001870      0.000000
    398 O     s      -0.001988      0.001988     -0.000271      0.000000
    399 O     s      -0.001349     -0.001349     -0.000000      0.000000
    400 O     s       0.000732      0.001775     -0.001870      0.000000
--------------------------------------------------------------------------------
  Maximum abs         0.003326      0.003326      0.003743      0.000000
--------------------------------------------------------------------------------


  Time to end of optimisation =      29.0259 seconds


  Peak dynamic memory used =       9.20 MB 


  Timing analysis for GULP :

--------------------------------------------------------------------------------
  Task / Subroutine                                          Time (Seconds)
--------------------------------------------------------------------------------
  Calculation of reciprocal space energy and derivatives          6.6858
  Calculation of real space energy and derivatives               15.0074
  Calculation of three-body energy and derivatives                4.9649
  Calculation and manipulation of Hessian matrix                  2.2720
  Calculation of matrix inversion                                 0.0364
  Symmetry generation of equivalent positions                     0.0005
--------------------------------------------------------------------------------
  Total CPU time                                                 29.0259
--------------------------------------------------------------------------------


  Dump file written as ReferenceDataBase/8323211_111.grs
  CIF file written as ReferenceDataBase/8323211_111_opt.cif


  Job Finished at 00:43.58  6th February   2024                               

