********************************************************************************
*                       GENERAL UTILITY LATTICE PROGRAM                        *
*                                 Julian Gale                                  *
*                       Curtin Institute for Computation                       *
*                    School of Molecular and Life Sciences                     *
*                    Curtin University, Western Australia                      *
********************************************************************************
* Version = 6.1.2 * Last modified =   3rd November 2022                        *
********************************************************************************
*  optimise     - perform optimisation run                                     *
*  conv         - constant volume calculation                                  *
*  shell        - only shells and radii to be optimised                        *
*  nosymmetry   - turn off symmetry after initial structure generation         *
********************************************************************************

  Job Started  at 00:43.59  6th February   2024                               

  Number of CPUs =     1


  Total number of configurations input =      1

********************************************************************************
*  Input for Configuration =   1 : ReferenceDataBase/8325000_111               *
********************************************************************************

  Formula = Si54O108                                                    

  Number of irreducible atoms/shells =     270


  Total number atoms/shells =     270

  Dimensionality = 3               :  Bulk   



  Cartesian lattice vectors (Angstroms) :

       18.915700    0.000000    0.000000
       -9.457850   16.381477    0.000000
        0.000000    0.000000   11.095100

  Cell parameters (Angstroms/Degrees):

  a =      18.9157    alpha =  90.0000
  b =      18.9157    beta  =  90.0000
  c =      11.0951    gamma = 120.0000

  Initial cell volume =        3438.006454 Angs**3

  Temperature of configuration =   0.00     K 

  Pressure of configuration =         0.000 GPa 

  Fractional coordinates of asymmetric unit :

--------------------------------------------------------------------------------
   No.  Atomic       x           y          z         Charge      Occupancy
        Label      (Frac)      (Frac)     (Frac)        (e)         (Frac)  
--------------------------------------------------------------------------------
      1 Si    c    0.088901    0.754560    0.642632     4.00000    1.000000    
      2 Si    c    0.670451    0.187149    0.742843     4.00000    1.000000    
      3 Si    c    0.907615    0.660973    0.356726     4.00000    1.000000    
      4 Si    c    0.179247    0.661398    0.359114     4.00000    1.000000    
      5 O     c    0.153735    0.847013    0.684209     0.86902    1.000000    
      6 O     c    0.118842    0.692935    0.688735     0.86902    1.000000    
      7 O     c    0.998131    0.726825    0.690565     0.86902    1.000000    
      8 O     c    0.689704    0.116796    0.705814     0.86902    1.000000    
      9 O     c    0.725875    0.270477    0.669469     0.86902    1.000000    
     10 O     c    0.576743    0.156289    0.711386     0.86902    1.000000    
     11 O     c    0.684852    0.202847    0.885000     0.86902    1.000000    
     12 Si    c    0.676969    0.249093    0.000225     4.00000    1.000000    
     13 O     c    0.750352    0.344004    0.000225     0.86902    1.000000    
     14 O     c    0.087147    0.751605    0.500225     0.86902    1.000000    
     15 O     c    0.904569    0.648088    0.500225     0.86902    1.000000    
     16 O     c    0.169669    0.643199    0.500225     0.86902    1.000000    
     17 Si    c    0.334948    0.090618    0.642632     4.00000    1.000000    
     18 Si    c    0.483909    0.672168    0.742843     4.00000    1.000000    
     19 Si    c    0.247249    0.909332    0.356726     4.00000    1.000000    
     20 Si    c    0.518457    0.180964    0.359114     4.00000    1.000000    
     21 O     c    0.307329    0.155453    0.684209     0.86902    1.000000    
     22 O     c    0.426514    0.120559    0.688735     0.86902    1.000000    
     23 O     c    0.271914    0.999849    0.690565     0.86902    1.000000    
     24 O     c    0.573516    0.691422    0.705814     0.86902    1.000000    
     25 O     c    0.456006    0.727592    0.669469     0.86902    1.000000    
     26 O     c    0.421062    0.578461    0.711386     0.86902    1.000000    
     27 O     c    0.482612    0.686570    0.885000     0.86902    1.000000    
     28 Si    c    0.428484    0.678687    0.000225     4.00000    1.000000    
     29 O     c    0.406956    0.752070    0.000225     0.86902    1.000000    
     30 O     c    0.336150    0.088864    0.500225     0.86902    1.000000    
     31 O     c    0.257089    0.906287    0.500225     0.86902    1.000000    
     32 O     c    0.527078    0.171387    0.500225     0.86902    1.000000    
     33 Si    c    0.244938    0.336666    0.642632     4.00000    1.000000    
     34 Si    c    0.812348    0.485627    0.742843     4.00000    1.000000    
     35 Si    c    0.338525    0.248967    0.356726     4.00000    1.000000    
     36 Si    c    0.338100    0.520174    0.359114     4.00000    1.000000    
     37 O     c    0.152484    0.309047    0.684209     0.86902    1.000000    
     38 O     c    0.306563    0.428232    0.688735     0.86902    1.000000    
     39 O     c    0.272673    0.273632    0.690565     0.86902    1.000000    
     40 O     c    0.882702    0.575233    0.705814     0.86902    1.000000    
     41 O     c    0.729021    0.457723    0.669469     0.86902    1.000000    
     42 O     c    0.843209    0.422780    0.711386     0.86902    1.000000    
     43 O     c    0.796650    0.484330    0.885000     0.86902    1.000000    
     44 Si    c    0.750405    0.430201    0.000225     4.00000    1.000000    
     45 O     c    0.655494    0.408673    0.000225     0.86902    1.000000    
     46 O     c    0.247893    0.337867    0.500225     0.86902    1.000000    
     47 O     c    0.351410    0.258806    0.500225     0.86902    1.000000    
     48 O     c    0.356299    0.528795    0.500225     0.86902    1.000000    
     49 Si    c    0.908879    0.246655    0.642632     4.00000    1.000000    
     50 Si    c    0.327329    0.814066    0.742843     4.00000    1.000000    
     51 Si    c    0.090165    0.340242    0.356726     4.00000    1.000000    
     52 Si    c    0.818533    0.339817    0.359114     4.00000    1.000000    
     53 O     c    0.844045    0.154202    0.684209     0.86902    1.000000    
     54 O     c    0.878938    0.308280    0.688735     0.86902    1.000000    
     55 O     c    0.999649    0.274390    0.690565     0.86902    1.000000    
     56 O     c    0.308076    0.884419    0.705814     0.86902    1.000000    
     57 O     c    0.271905    0.730739    0.669469     0.86902    1.000000    
     58 O     c    0.421037    0.844926    0.711386     0.86902    1.000000    
     59 O     c    0.312928    0.798368    0.885000     0.86902    1.000000    
     60 Si    c    0.320811    0.752122    0.000225     4.00000    1.000000    
     61 O     c    0.247428    0.657211    0.000225     0.86902    1.000000    
     62 O     c    0.910633    0.249611    0.500225     0.86902    1.000000    
     63 O     c    0.093211    0.353127    0.500225     0.86902    1.000000    
     64 O     c    0.828111    0.358016    0.500225     0.86902    1.000000    
     65 Si    c    0.662832    0.910597    0.642632     4.00000    1.000000    
     66 Si    c    0.513871    0.329047    0.742843     4.00000    1.000000    
     67 Si    c    0.750530    0.091883    0.356726     4.00000    1.000000    
     68 Si    c    0.479323    0.820251    0.359114     4.00000    1.000000    
     69 O     c    0.690450    0.845762    0.684209     0.86902    1.000000    
     70 O     c    0.571266    0.880656    0.688735     0.86902    1.000000    
     71 O     c    0.725866    0.001366    0.690565     0.86902    1.000000    
     72 O     c    0.424264    0.309794    0.705814     0.86902    1.000000    
     73 O     c    0.541774    0.273623    0.669469     0.86902    1.000000    
     74 O     c    0.576718    0.422754    0.711386     0.86902    1.000000    
     75 O     c    0.515167    0.314645    0.885000     0.86902    1.000000    
     76 Si    c    0.569296    0.322529    0.000225     4.00000    1.000000    
     77 O     c    0.590824    0.249146    0.000225     0.86902    1.000000    
     78 O     c    0.661630    0.912351    0.500225     0.86902    1.000000    
     79 O     c    0.740691    0.094929    0.500225     0.86902    1.000000    
     80 O     c    0.470702    0.829829    0.500225     0.86902    1.000000    
     81 Si    c    0.752842    0.664549    0.642632     4.00000    1.000000    
     82 Si    c    0.185431    0.515588    0.742843     4.00000    1.000000    
     83 Si    c    0.659255    0.752248    0.356726     4.00000    1.000000    
     84 Si    c    0.659680    0.481041    0.359114     4.00000    1.000000    
     85 O     c    0.845296    0.692168    0.684209     0.86902    1.000000    
     86 O     c    0.691217    0.572983    0.688735     0.86902    1.000000    
     87 O     c    0.725107    0.727583    0.690565     0.86902    1.000000    
     88 O     c    0.115078    0.425982    0.705814     0.86902    1.000000    
     89 O     c    0.268759    0.543492    0.669469     0.86902    1.000000    
     90 O     c    0.154571    0.578435    0.711386     0.86902    1.000000    
     91 O     c    0.201130    0.516885    0.885000     0.86902    1.000000    
     92 Si    c    0.247375    0.571014    0.000225     4.00000    1.000000    
     93 O     c    0.342286    0.592542    0.000225     0.86902    1.000000    
     94 O     c    0.749887    0.663348    0.500225     0.86902    1.000000    
     95 O     c    0.646370    0.742409    0.500225     0.86902    1.000000    
     96 O     c    0.641481    0.472420    0.500225     0.86902    1.000000    
     97 Si    c    0.908879    0.246655    0.357818     4.00000    1.000000    
     98 Si    c    0.327329    0.814066    0.257607     4.00000    1.000000    
     99 Si    c    0.090165    0.340242    0.643724     4.00000    1.000000    
    100 Si    c    0.818533    0.339817    0.641336     4.00000    1.000000    
    101 O     c    0.844045    0.154202    0.316241     0.86902    1.000000    
    102 O     c    0.878938    0.308280    0.311715     0.86902    1.000000    
    103 O     c    0.999649    0.274390    0.309885     0.86902    1.000000    
    104 O     c    0.308076    0.884419    0.294635     0.86902    1.000000    
    105 O     c    0.271905    0.730739    0.330981     0.86902    1.000000    
    106 O     c    0.421037    0.844926    0.289064     0.86902    1.000000    
    107 O     c    0.312928    0.798368    0.115450     0.86902    1.000000    
    108 Si    c    0.662832    0.910597    0.357818     4.00000    1.000000    
    109 Si    c    0.513871    0.329047    0.257607     4.00000    1.000000    
    110 Si    c    0.750530    0.091883    0.643724     4.00000    1.000000    
    111 Si    c    0.479323    0.820251    0.641336     4.00000    1.000000    
    112 O     c    0.690450    0.845762    0.316241     0.86902    1.000000    
    113 O     c    0.571266    0.880656    0.311715     0.86902    1.000000    
    114 O     c    0.725866    0.001366    0.309885     0.86902    1.000000    
    115 O     c    0.424264    0.309794    0.294635     0.86902    1.000000    
    116 O     c    0.541774    0.273623    0.330981     0.86902    1.000000    
    117 O     c    0.576718    0.422754    0.289064     0.86902    1.000000    
    118 O     c    0.515167    0.314645    0.115450     0.86902    1.000000    
    119 Si    c    0.752842    0.664549    0.357818     4.00000    1.000000    
    120 Si    c    0.185431    0.515588    0.257607     4.00000    1.000000    
    121 Si    c    0.659255    0.752248    0.643724     4.00000    1.000000    
    122 Si    c    0.659680    0.481041    0.641336     4.00000    1.000000    
    123 O     c    0.845296    0.692168    0.316241     0.86902    1.000000    
    124 O     c    0.691217    0.572983    0.311715     0.86902    1.000000    
    125 O     c    0.725107    0.727583    0.309885     0.86902    1.000000    
    126 O     c    0.115078    0.425982    0.294635     0.86902    1.000000    
    127 O     c    0.268759    0.543492    0.330981     0.86902    1.000000    
    128 O     c    0.154571    0.578435    0.289064     0.86902    1.000000    
    129 O     c    0.201130    0.516885    0.115450     0.86902    1.000000    
    130 Si    c    0.088901    0.754560    0.357818     4.00000    1.000000    
    131 Si    c    0.670451    0.187149    0.257607     4.00000    1.000000    
    132 Si    c    0.907615    0.660973    0.643724     4.00000    1.000000    
    133 Si    c    0.179247    0.661398    0.641336     4.00000    1.000000    
    134 O     c    0.153735    0.847013    0.316241     0.86902    1.000000    
    135 O     c    0.118842    0.692935    0.311715     0.86902    1.000000    
    136 O     c    0.998131    0.726825    0.309885     0.86902    1.000000    
    137 O     c    0.689704    0.116796    0.294635     0.86902    1.000000    
    138 O     c    0.725875    0.270477    0.330981     0.86902    1.000000    
    139 O     c    0.576743    0.156289    0.289064     0.86902    1.000000    
    140 O     c    0.684852    0.202847    0.115450     0.86902    1.000000    
    141 Si    c    0.334948    0.090618    0.357818     4.00000    1.000000    
    142 Si    c    0.483909    0.672168    0.257607     4.00000    1.000000    
    143 Si    c    0.247249    0.909332    0.643724     4.00000    1.000000    
    144 Si    c    0.518457    0.180964    0.641336     4.00000    1.000000    
    145 O     c    0.307329    0.155453    0.316241     0.86902    1.000000    
    146 O     c    0.426514    0.120559    0.311715     0.86902    1.000000    
    147 O     c    0.271914    0.999849    0.309885     0.86902    1.000000    
    148 O     c    0.573516    0.691422    0.294635     0.86902    1.000000    
    149 O     c    0.456006    0.727592    0.330981     0.86902    1.000000    
    150 O     c    0.421062    0.578461    0.289064     0.86902    1.000000    
    151 O     c    0.482612    0.686570    0.115450     0.86902    1.000000    
    152 Si    c    0.244938    0.336666    0.357818     4.00000    1.000000    
    153 Si    c    0.812348    0.485627    0.257607     4.00000    1.000000    
    154 Si    c    0.338525    0.248967    0.643724     4.00000    1.000000    
    155 Si    c    0.338100    0.520174    0.641336     4.00000    1.000000    
    156 O     c    0.152484    0.309047    0.316241     0.86902    1.000000    
    157 O     c    0.306563    0.428232    0.311715     0.86902    1.000000    
    158 O     c    0.272673    0.273632    0.309885     0.86902    1.000000    
    159 O     c    0.882702    0.575233    0.294635     0.86902    1.000000    
    160 O     c    0.729021    0.457723    0.330981     0.86902    1.000000    
    161 O     c    0.843209    0.422780    0.289064     0.86902    1.000000    
    162 O     c    0.796650    0.484330    0.115450     0.86902    1.000000    
    163 O     s    0.153735 *  0.847013 *  0.684209 *  -2.86902    1.000000    
    164 O     s    0.118842 *  0.692935 *  0.688735 *  -2.86902    1.000000    
    165 O     s    0.998131 *  0.726825 *  0.690565 *  -2.86902    1.000000    
    166 O     s    0.689704 *  0.116796 *  0.705814 *  -2.86902    1.000000    
    167 O     s    0.725875 *  0.270477 *  0.669469 *  -2.86902    1.000000    
    168 O     s    0.576743 *  0.156289 *  0.711386 *  -2.86902    1.000000    
    169 O     s    0.684852 *  0.202847 *  0.885000 *  -2.86902    1.000000    
    170 O     s    0.750352 *  0.344004 *  0.000225 *  -2.86902    1.000000    
    171 O     s    0.087147 *  0.751605 *  0.500225 *  -2.86902    1.000000    
    172 O     s    0.904569 *  0.648088 *  0.500225 *  -2.86902    1.000000    
    173 O     s    0.169669 *  0.643199 *  0.500225 *  -2.86902    1.000000    
    174 O     s    0.307329 *  0.155453 *  0.684209 *  -2.86902    1.000000    
    175 O     s    0.426514 *  0.120559 *  0.688735 *  -2.86902    1.000000    
    176 O     s    0.271914 *  0.999849 *  0.690565 *  -2.86902    1.000000    
    177 O     s    0.573516 *  0.691422 *  0.705814 *  -2.86902    1.000000    
    178 O     s    0.456006 *  0.727592 *  0.669469 *  -2.86902    1.000000    
    179 O     s    0.421062 *  0.578461 *  0.711386 *  -2.86902    1.000000    
    180 O     s    0.482612 *  0.686570 *  0.885000 *  -2.86902    1.000000    
    181 O     s    0.406956 *  0.752070 *  0.000225 *  -2.86902    1.000000    
    182 O     s    0.336150 *  0.088864 *  0.500225 *  -2.86902    1.000000    
    183 O     s    0.257089 *  0.906287 *  0.500225 *  -2.86902    1.000000    
    184 O     s    0.527078 *  0.171387 *  0.500225 *  -2.86902    1.000000    
    185 O     s    0.152484 *  0.309047 *  0.684209 *  -2.86902    1.000000    
    186 O     s    0.306563 *  0.428232 *  0.688735 *  -2.86902    1.000000    
    187 O     s    0.272673 *  0.273632 *  0.690565 *  -2.86902    1.000000    
    188 O     s    0.882702 *  0.575233 *  0.705814 *  -2.86902    1.000000    
    189 O     s    0.729021 *  0.457723 *  0.669469 *  -2.86902    1.000000    
    190 O     s    0.843209 *  0.422780 *  0.711386 *  -2.86902    1.000000    
    191 O     s    0.796650 *  0.484330 *  0.885000 *  -2.86902    1.000000    
    192 O     s    0.655494 *  0.408673 *  0.000225 *  -2.86902    1.000000    
    193 O     s    0.247893 *  0.337867 *  0.500225 *  -2.86902    1.000000    
    194 O     s    0.351410 *  0.258806 *  0.500225 *  -2.86902    1.000000    
    195 O     s    0.356299 *  0.528795 *  0.500225 *  -2.86902    1.000000    
    196 O     s    0.844045 *  0.154202 *  0.684209 *  -2.86902    1.000000    
    197 O     s    0.878938 *  0.308280 *  0.688735 *  -2.86902    1.000000    
    198 O     s    0.999649 *  0.274390 *  0.690565 *  -2.86902    1.000000    
    199 O     s    0.308076 *  0.884419 *  0.705814 *  -2.86902    1.000000    
    200 O     s    0.271905 *  0.730739 *  0.669469 *  -2.86902    1.000000    
    201 O     s    0.421037 *  0.844926 *  0.711386 *  -2.86902    1.000000    
    202 O     s    0.312928 *  0.798368 *  0.885000 *  -2.86902    1.000000    
    203 O     s    0.247428 *  0.657211 *  0.000225 *  -2.86902    1.000000    
    204 O     s    0.910633 *  0.249611 *  0.500225 *  -2.86902    1.000000    
    205 O     s    0.093211 *  0.353127 *  0.500225 *  -2.86902    1.000000    
    206 O     s    0.828111 *  0.358016 *  0.500225 *  -2.86902    1.000000    
    207 O     s    0.690450 *  0.845762 *  0.684209 *  -2.86902    1.000000    
    208 O     s    0.571266 *  0.880656 *  0.688735 *  -2.86902    1.000000    
    209 O     s    0.725866 *  0.001366 *  0.690565 *  -2.86902    1.000000    
    210 O     s    0.424264 *  0.309794 *  0.705814 *  -2.86902    1.000000    
    211 O     s    0.541774 *  0.273623 *  0.669469 *  -2.86902    1.000000    
    212 O     s    0.576718 *  0.422754 *  0.711386 *  -2.86902    1.000000    
    213 O     s    0.515167 *  0.314645 *  0.885000 *  -2.86902    1.000000    
    214 O     s    0.590824 *  0.249146 *  0.000225 *  -2.86902    1.000000    
    215 O     s    0.661630 *  0.912351 *  0.500225 *  -2.86902    1.000000    
    216 O     s    0.740691 *  0.094929 *  0.500225 *  -2.86902    1.000000    
    217 O     s    0.470702 *  0.829829 *  0.500225 *  -2.86902    1.000000    
    218 O     s    0.845296 *  0.692168 *  0.684209 *  -2.86902    1.000000    
    219 O     s    0.691217 *  0.572983 *  0.688735 *  -2.86902    1.000000    
    220 O     s    0.725107 *  0.727583 *  0.690565 *  -2.86902    1.000000    
    221 O     s    0.115078 *  0.425982 *  0.705814 *  -2.86902    1.000000    
    222 O     s    0.268759 *  0.543492 *  0.669469 *  -2.86902    1.000000    
    223 O     s    0.154571 *  0.578435 *  0.711386 *  -2.86902    1.000000    
    224 O     s    0.201130 *  0.516885 *  0.885000 *  -2.86902    1.000000    
    225 O     s    0.342286 *  0.592542 *  0.000225 *  -2.86902    1.000000    
    226 O     s    0.749887 *  0.663348 *  0.500225 *  -2.86902    1.000000    
    227 O     s    0.646370 *  0.742409 *  0.500225 *  -2.86902    1.000000    
    228 O     s    0.641481 *  0.472420 *  0.500225 *  -2.86902    1.000000    
    229 O     s    0.844045 *  0.154202 *  0.316241 *  -2.86902    1.000000    
    230 O     s    0.878938 *  0.308280 *  0.311715 *  -2.86902    1.000000    
    231 O     s    0.999649 *  0.274390 *  0.309885 *  -2.86902    1.000000    
    232 O     s    0.308076 *  0.884419 *  0.294635 *  -2.86902    1.000000    
    233 O     s    0.271905 *  0.730739 *  0.330981 *  -2.86902    1.000000    
    234 O     s    0.421037 *  0.844926 *  0.289064 *  -2.86902    1.000000    
    235 O     s    0.312928 *  0.798368 *  0.115450 *  -2.86902    1.000000    
    236 O     s    0.690450 *  0.845762 *  0.316241 *  -2.86902    1.000000    
    237 O     s    0.571266 *  0.880656 *  0.311715 *  -2.86902    1.000000    
    238 O     s    0.725866 *  0.001366 *  0.309885 *  -2.86902    1.000000    
    239 O     s    0.424264 *  0.309794 *  0.294635 *  -2.86902    1.000000    
    240 O     s    0.541774 *  0.273623 *  0.330981 *  -2.86902    1.000000    
    241 O     s    0.576718 *  0.422754 *  0.289064 *  -2.86902    1.000000    
    242 O     s    0.515167 *  0.314645 *  0.115450 *  -2.86902    1.000000    
    243 O     s    0.845296 *  0.692168 *  0.316241 *  -2.86902    1.000000    
    244 O     s    0.691217 *  0.572983 *  0.311715 *  -2.86902    1.000000    
    245 O     s    0.725107 *  0.727583 *  0.309885 *  -2.86902    1.000000    
    246 O     s    0.115078 *  0.425982 *  0.294635 *  -2.86902    1.000000    
    247 O     s    0.268759 *  0.543492 *  0.330981 *  -2.86902    1.000000    
    248 O     s    0.154571 *  0.578435 *  0.289064 *  -2.86902    1.000000    
    249 O     s    0.201130 *  0.516885 *  0.115450 *  -2.86902    1.000000    
    250 O     s    0.153735 *  0.847013 *  0.316241 *  -2.86902    1.000000    
    251 O     s    0.118842 *  0.692935 *  0.311715 *  -2.86902    1.000000    
    252 O     s    0.998131 *  0.726825 *  0.309885 *  -2.86902    1.000000    
    253 O     s    0.689704 *  0.116796 *  0.294635 *  -2.86902    1.000000    
    254 O     s    0.725875 *  0.270477 *  0.330981 *  -2.86902    1.000000    
    255 O     s    0.576743 *  0.156289 *  0.289064 *  -2.86902    1.000000    
    256 O     s    0.684852 *  0.202847 *  0.115450 *  -2.86902    1.000000    
    257 O     s    0.307329 *  0.155453 *  0.316241 *  -2.86902    1.000000    
    258 O     s    0.426514 *  0.120559 *  0.311715 *  -2.86902    1.000000    
    259 O     s    0.271914 *  0.999849 *  0.309885 *  -2.86902    1.000000    
    260 O     s    0.573516 *  0.691422 *  0.294635 *  -2.86902    1.000000    
    261 O     s    0.456006 *  0.727592 *  0.330981 *  -2.86902    1.000000    
    262 O     s    0.421062 *  0.578461 *  0.289064 *  -2.86902    1.000000    
    263 O     s    0.482612 *  0.686570 *  0.115450 *  -2.86902    1.000000    
    264 O     s    0.152484 *  0.309047 *  0.316241 *  -2.86902    1.000000    
    265 O     s    0.306563 *  0.428232 *  0.311715 *  -2.86902    1.000000    
    266 O     s    0.272673 *  0.273632 *  0.309885 *  -2.86902    1.000000    
    267 O     s    0.882702 *  0.575233 *  0.294635 *  -2.86902    1.000000    
    268 O     s    0.729021 *  0.457723 *  0.330981 *  -2.86902    1.000000    
    269 O     s    0.843209 *  0.422780 *  0.289064 *  -2.86902    1.000000    
    270 O     s    0.796650 *  0.484330 *  0.115450 *  -2.86902    1.000000    
--------------------------------------------------------------------------------



********************************************************************************
*  General input information                                                   *
********************************************************************************

  Species output for all configurations : 

--------------------------------------------------------------------------------
  Species    Type    Atomic    Atomic    Charge       Radii (Angs)     Library
                     Number     Mass       (e)     Cova   Ionic  VDW   Symbol
--------------------------------------------------------------------------------
    O        Core        8      16.00   0.869020   0.730  0.000  1.360 O        
    O        Shell       8       0.00  -2.869020   0.730  0.000  0.000 O        
    Si       Core       14      28.09   4.000000   1.200  0.000  2.100 Si       
--------------------------------------------------------------------------------


  Lattice summation method               =    Ewald          (3-D)
                                         =    Parry          (2-D)
                                         =    Saunders et al (1-D)
  Accuracy factor for lattice sums       =   12.000


  Analytic derivatives to be used

  Time limit = Infinity

  Maximum range for interatomic potentials =    100000.000000 Angstroms

  General interatomic potentials :

--------------------------------------------------------------------------------
Atom  Types   Potential      Parameter       Value         Units   Cutoffs(Ang)
  1     2                                                            Min /  Max 
--------------------------------------------------------------------------------
Si   c O    s Buckingham    Buckingham A     1283.9070    eV        0.000 10.000
                            Buckingham rho  0.32052000    Ang       
                            Buckingham C     10.661580    eV*Ang^6  
--------------------------------------------------------------------------------
O    s O    s Buckingham    Buckingham A     22764.000    eV        0.000 12.000
                            Buckingham rho  0.14900000    Ang       
                            Buckingham C     27.879000    eV*Ang^6  
--------------------------------------------------------------------------------
O    c O    s Spring (c-s)  Spring k 2       74.920000    eV*Ang^-2 0.000  1.100
                            Spring k 4       0.0000000    eV*Ang^-4 
--------------------------------------------------------------------------------

  General Three-body potentials :

--------------------------------------------------------------------------------
  Atoms       Potential      Parameter       Value         Units   Cutoffs(Ang)
  1 / 2 / 3                                                          Min /  Max 
--------------------------------------------------------------------------------
Si    core    Harmonic      Three-body cnst  2.0972400    eV*rad^-2 0.000  1.900
O     shel                  Three-body angl  109.47000    degrees   0.000  1.900
O     shel                  Three-body k4    0.0000000    eV*rad^-4 0.000  3.500
                            Three-body k3    0.0000000    eV*rad^-3 
--------------------------------------------------------------------------------
Si    core    Harmonic      Three-body cnst  2.0972400    eV*rad^-2 0.000  1.900
O     shel                  Three-body angl  109.47000    degrees   0.000  1.900
õ(    shel                  Three-body k4    0.0000000    eV*rad^-4 0.000  3.500
                            Three-body k3    0.0000000    eV*rad^-3 
--------------------------------------------------------------------------------
Si    core    Harmonic      Three-body cnst  2.0972400    eV*rad^-2 0.000  1.900
õ(    shel                  Three-body angl  109.47000    degrees   0.000  1.900
õ(    shel                  Three-body k4    0.0000000    eV*rad^-4 0.000  3.500
                            Three-body k3    0.0000000    eV*rad^-3 
--------------------------------------------------------------------------------

********************************************************************************
*  Output for configuration   1 : ReferenceDataBase/8325000_111                *
********************************************************************************


  Components of energy : 

--------------------------------------------------------------------------------
  Interatomic potentials     =        1677.32208243 eV    
  Three-body potentials      =           0.29060547 eV    
  Monopole - monopole (real) =       -6550.46679771 eV    
  Monopole - monopole (recip)=       -1967.27136688 eV    
  Monopole - monopole (total)=       -8517.73816459 eV    
--------------------------------------------------------------------------------
  Total lattice energy       =       -6840.12547668 eV    
--------------------------------------------------------------------------------
  Total lattice energy       =         -659967.5476 kJ/(mole unit cells)
--------------------------------------------------------------------------------


  Number of variables =      324

  Maximum number of calculations  =           500
  Maximum Hessian update interval =            10
  Maximum step size               =   0.100000000
  Maximum parameter tolerance     =   0.000010000
  Maximum function  tolerance     =   0.000010000
  Maximum gradient  tolerance     =   0.001000000
  Maximum gradient  component     =   0.010000000

  Newton-Raphson optimiser to be used

  BFGS hessian update to be used

  Lower half triangular hessian to be used

  Minimiser to switch to RFO
  When gradient norm is less than     0.080000

  Switch max step size to       0.30000000 when gnorm is less than     0.005000

  Shell only optimisation

  Dumpfile to be written after every cycle

  Start of bulk optimisation :

  Cycle:      0 Energy:     -6840.125477  Gnorm:      8.540496  CPU:    0.847
  ** Hessian calculated **
  Cycle:      1 Energy:     -6934.020850  Gnorm:      1.612263  CPU:    2.025
  ** Hessian calculated **
  Cycle:      2 Energy:     -6936.650963  Gnorm:      0.805416  CPU:    3.407
  Cycle:      3 Energy:     -6937.307446  Gnorm:      0.402191  CPU:    4.195
  Cycle:      4 Energy:     -6937.471144  Gnorm:      0.200975  CPU:    4.994
  Cycle:      5 Energy:     -6937.512063  Gnorm:      0.100459  CPU:    5.797
  Cycle:      6 Energy:     -6937.522289  Gnorm:      0.050222  CPU:    6.590
  ** Hessian has required structure
  ** Hessian has required structure
  Cycle:      7 Energy:     -6937.524845  Gnorm:      0.025111  CPU:    8.125
  ** Hessian has required structure
  Cycle:      8 Energy:     -6937.525484  Gnorm:      0.012555  CPU:    9.002
  ** Hessian has required structure
  Cycle:      9 Energy:     -6937.525644  Gnorm:      0.006277  CPU:    9.866
  ** Hessian has required structure
  Cycle:     10 Energy:     -6937.525671  Gnorm:      0.004394  CPU:   10.477
  ** Hessian has required structure
  Cycle:     11 Energy:     -6937.525696  Gnorm:      0.000816  CPU:   11.217
  ** Hessian has required structure


  **** Optimisation achieved ****


  Final energy =   -6937.52569720 eV      
  Final Gnorm  =       0.00008160

  Components of energy : 

--------------------------------------------------------------------------------
  Interatomic potentials     =        1900.74315746 eV    
  Three-body potentials      =           1.75498448 eV    
  Monopole - monopole (real) =       -6049.89655915 eV    
  Monopole - monopole (recip)=       -2790.12727999 eV    
  Monopole - monopole (total)=       -8840.02383914 eV    
--------------------------------------------------------------------------------
  Total lattice energy       =       -6937.52569720 eV    
--------------------------------------------------------------------------------
  Total lattice energy       =         -669365.1800 kJ/(mole unit cells)
--------------------------------------------------------------------------------

  Final fractional coordinates of atoms :

--------------------------------------------------------------------------------
   No.  Atomic        x           y          z          Radius
        Label       (Frac)      (Frac)     (Frac)       (Angs) 
--------------------------------------------------------------------------------
     1  Si    c     0.088901    0.754560    0.642632    0.000000
     2  Si    c     0.670451    0.187149    0.742843    0.000000
     3  Si    c     0.907615    0.660973    0.356726    0.000000
     4  Si    c     0.179247    0.661398    0.359114    0.000000
     5  O     c     0.153735    0.847013    0.684209    0.000000
     6  O     c     0.118842    0.692935    0.688735    0.000000
     7  O     c     0.998131    0.726825    0.690565    0.000000
     8  O     c     0.689704    0.116796    0.705814    0.000000
     9  O     c     0.725875    0.270477    0.669469    0.000000
    10  O     c     0.576743    0.156289    0.711386    0.000000
    11  O     c     0.684852    0.202847    0.885000    0.000000
    12  Si    c     0.676969    0.249093    0.000225    0.000000
    13  O     c     0.750352    0.344004    0.000225    0.000000
    14  O     c     0.087147    0.751605    0.500225    0.000000
    15  O     c     0.904569    0.648088    0.500225    0.000000
    16  O     c     0.169669    0.643199    0.500225    0.000000
    17  Si    c     0.334948    0.090618    0.642632    0.000000
    18  Si    c     0.483909    0.672168    0.742843    0.000000
    19  Si    c     0.247249    0.909332    0.356726    0.000000
    20  Si    c     0.518457    0.180964    0.359114    0.000000
    21  O     c     0.307329    0.155453    0.684209    0.000000
    22  O     c     0.426514    0.120559    0.688735    0.000000
    23  O     c     0.271914    0.999849    0.690565    0.000000
    24  O     c     0.573516    0.691422    0.705814    0.000000
    25  O     c     0.456006    0.727592    0.669469    0.000000
    26  O     c     0.421062    0.578461    0.711386    0.000000
    27  O     c     0.482612    0.686570    0.885000    0.000000
    28  Si    c     0.428484    0.678687    0.000225    0.000000
    29  O     c     0.406956    0.752070    0.000225    0.000000
    30  O     c     0.336150    0.088864    0.500225    0.000000
    31  O     c     0.257089    0.906287    0.500225    0.000000
    32  O     c     0.527078    0.171387    0.500225    0.000000
    33  Si    c     0.244938    0.336666    0.642632    0.000000
    34  Si    c     0.812348    0.485627    0.742843    0.000000
    35  Si    c     0.338525    0.248967    0.356726    0.000000
    36  Si    c     0.338100    0.520174    0.359114    0.000000
    37  O     c     0.152484    0.309047    0.684209    0.000000
    38  O     c     0.306563    0.428232    0.688735    0.000000
    39  O     c     0.272673    0.273632    0.690565    0.000000
    40  O     c     0.882702    0.575233    0.705814    0.000000
    41  O     c     0.729021    0.457723    0.669469    0.000000
    42  O     c     0.843209    0.422780    0.711386    0.000000
    43  O     c     0.796650    0.484330    0.885000    0.000000
    44  Si    c     0.750405    0.430201    0.000225    0.000000
    45  O     c     0.655494    0.408673    0.000225    0.000000
    46  O     c     0.247893    0.337867    0.500225    0.000000
    47  O     c     0.351410    0.258806    0.500225    0.000000
    48  O     c     0.356299    0.528795    0.500225    0.000000
    49  Si    c     0.908879    0.246655    0.642632    0.000000
    50  Si    c     0.327329    0.814066    0.742843    0.000000
    51  Si    c     0.090165    0.340242    0.356726    0.000000
    52  Si    c     0.818533    0.339817    0.359114    0.000000
    53  O     c     0.844045    0.154202    0.684209    0.000000
    54  O     c     0.878938    0.308280    0.688735    0.000000
    55  O     c     0.999649    0.274390    0.690565    0.000000
    56  O     c     0.308076    0.884419    0.705814    0.000000
    57  O     c     0.271905    0.730739    0.669469    0.000000
    58  O     c     0.421037    0.844926    0.711386    0.000000
    59  O     c     0.312928    0.798368    0.885000    0.000000
    60  Si    c     0.320811    0.752122    0.000225    0.000000
    61  O     c     0.247428    0.657211    0.000225    0.000000
    62  O     c     0.910633    0.249611    0.500225    0.000000
    63  O     c     0.093211    0.353127    0.500225    0.000000
    64  O     c     0.828111    0.358016    0.500225    0.000000
    65  Si    c     0.662832    0.910597    0.642632    0.000000
    66  Si    c     0.513871    0.329047    0.742843    0.000000
    67  Si    c     0.750530    0.091883    0.356726    0.000000
    68  Si    c     0.479323    0.820251    0.359114    0.000000
    69  O     c     0.690450    0.845762    0.684209    0.000000
    70  O     c     0.571266    0.880656    0.688735    0.000000
    71  O     c     0.725866    0.001366    0.690565    0.000000
    72  O     c     0.424264    0.309794    0.705814    0.000000
    73  O     c     0.541774    0.273623    0.669469    0.000000
    74  O     c     0.576718    0.422754    0.711386    0.000000
    75  O     c     0.515167    0.314645    0.885000    0.000000
    76  Si    c     0.569296    0.322529    0.000225    0.000000
    77  O     c     0.590824    0.249146    0.000225    0.000000
    78  O     c     0.661630    0.912351    0.500225    0.000000
    79  O     c     0.740691    0.094929    0.500225    0.000000
    80  O     c     0.470702    0.829829    0.500225    0.000000
    81  Si    c     0.752842    0.664549    0.642632    0.000000
    82  Si    c     0.185431    0.515588    0.742843    0.000000
    83  Si    c     0.659255    0.752248    0.356726    0.000000
    84  Si    c     0.659680    0.481041    0.359114    0.000000
    85  O     c     0.845296    0.692168    0.684209    0.000000
    86  O     c     0.691217    0.572983    0.688735    0.000000
    87  O     c     0.725107    0.727583    0.690565    0.000000
    88  O     c     0.115078    0.425982    0.705814    0.000000
    89  O     c     0.268759    0.543492    0.669469    0.000000
    90  O     c     0.154571    0.578435    0.711386    0.000000
    91  O     c     0.201130    0.516885    0.885000    0.000000
    92  Si    c     0.247375    0.571014    0.000225    0.000000
    93  O     c     0.342286    0.592542    0.000225    0.000000
    94  O     c     0.749887    0.663348    0.500225    0.000000
    95  O     c     0.646370    0.742409    0.500225    0.000000
    96  O     c     0.641481    0.472420    0.500225    0.000000
    97  Si    c     0.908879    0.246655    0.357818    0.000000
    98  Si    c     0.327329    0.814066    0.257607    0.000000
    99  Si    c     0.090165    0.340242    0.643724    0.000000
   100  Si    c     0.818533    0.339817    0.641336    0.000000
   101  O     c     0.844045    0.154202    0.316241    0.000000
   102  O     c     0.878938    0.308280    0.311715    0.000000
   103  O     c     0.999649    0.274390    0.309885    0.000000
   104  O     c     0.308076    0.884419    0.294635    0.000000
   105  O     c     0.271905    0.730739    0.330981    0.000000
   106  O     c     0.421037    0.844926    0.289064    0.000000
   107  O     c     0.312928    0.798368    0.115450    0.000000
   108  Si    c     0.662832    0.910597    0.357818    0.000000
   109  Si    c     0.513871    0.329047    0.257607    0.000000
   110  Si    c     0.750530    0.091883    0.643724    0.000000
   111  Si    c     0.479323    0.820251    0.641336    0.000000
   112  O     c     0.690450    0.845762    0.316241    0.000000
   113  O     c     0.571266    0.880656    0.311715    0.000000
   114  O     c     0.725866    0.001366    0.309885    0.000000
   115  O     c     0.424264    0.309794    0.294635    0.000000
   116  O     c     0.541774    0.273623    0.330981    0.000000
   117  O     c     0.576718    0.422754    0.289064    0.000000
   118  O     c     0.515167    0.314645    0.115450    0.000000
   119  Si    c     0.752842    0.664549    0.357818    0.000000
   120  Si    c     0.185431    0.515588    0.257607    0.000000
   121  Si    c     0.659255    0.752248    0.643724    0.000000
   122  Si    c     0.659680    0.481041    0.641336    0.000000
   123  O     c     0.845296    0.692168    0.316241    0.000000
   124  O     c     0.691217    0.572983    0.311715    0.000000
   125  O     c     0.725107    0.727583    0.309885    0.000000
   126  O     c     0.115078    0.425982    0.294635    0.000000
   127  O     c     0.268759    0.543492    0.330981    0.000000
   128  O     c     0.154571    0.578435    0.289064    0.000000
   129  O     c     0.201130    0.516885    0.115450    0.000000
   130  Si    c     0.088901    0.754560    0.357818    0.000000
   131  Si    c     0.670451    0.187149    0.257607    0.000000
   132  Si    c     0.907615    0.660973    0.643724    0.000000
   133  Si    c     0.179247    0.661398    0.641336    0.000000
   134  O     c     0.153735    0.847013    0.316241    0.000000
   135  O     c     0.118842    0.692935    0.311715    0.000000
   136  O     c     0.998131    0.726825    0.309885    0.000000
   137  O     c     0.689704    0.116796    0.294635    0.000000
   138  O     c     0.725875    0.270477    0.330981    0.000000
   139  O     c     0.576743    0.156289    0.289064    0.000000
   140  O     c     0.684852    0.202847    0.115450    0.000000
   141  Si    c     0.334948    0.090618    0.357818    0.000000
   142  Si    c     0.483909    0.672168    0.257607    0.000000
   143  Si    c     0.247249    0.909332    0.643724    0.000000
   144  Si    c     0.518457    0.180964    0.641336    0.000000
   145  O     c     0.307329    0.155453    0.316241    0.000000
   146  O     c     0.426514    0.120559    0.311715    0.000000
   147  O     c     0.271914    0.999849    0.309885    0.000000
   148  O     c     0.573516    0.691422    0.294635    0.000000
   149  O     c     0.456006    0.727592    0.330981    0.000000
   150  O     c     0.421062    0.578461    0.289064    0.000000
   151  O     c     0.482612    0.686570    0.115450    0.000000
   152  Si    c     0.244938    0.336666    0.357818    0.000000
   153  Si    c     0.812348    0.485627    0.257607    0.000000
   154  Si    c     0.338525    0.248967    0.643724    0.000000
   155  Si    c     0.338100    0.520174    0.641336    0.000000
   156  O     c     0.152484    0.309047    0.316241    0.000000
   157  O     c     0.306563    0.428232    0.311715    0.000000
   158  O     c     0.272673    0.273632    0.309885    0.000000
   159  O     c     0.882702    0.575233    0.294635    0.000000
   160  O     c     0.729021    0.457723    0.330981    0.000000
   161  O     c     0.843209    0.422780    0.289064    0.000000
   162  O     c     0.796650    0.484330    0.115450    0.000000
   163  O     s     0.156680    0.843794    0.675651    0.000000
   164  O     s     0.122053    0.696316    0.678794    0.000000
   165  O     s     0.998341    0.722854    0.680386    0.000000
   166  O     s     0.694404    0.122002    0.702999    0.000000
   167  O     s     0.729923    0.268980    0.674363    0.000000
   168  O     s     0.580595    0.162561    0.706926    0.000000
   169  O     s     0.682352    0.206384    0.882203    0.000000
   170  O     s     0.742861    0.343125    0.000225    0.000000
   171  O     s     0.087578    0.752310    0.500225    0.000000
   172  O     s     0.905231    0.650956    0.500225    0.000000
   173  O     s     0.171841    0.647396    0.500225    0.000000
   174  O     s     0.313494    0.158398    0.675651    0.000000
   175  O     s     0.426345    0.123770    0.678794    0.000000
   176  O     s     0.276095    0.000059    0.680386    0.000000
   177  O     s     0.573009    0.696121    0.702999    0.000000
   178  O     s     0.461551    0.731641    0.674363    0.000000
   179  O     s     0.418642    0.582313    0.706926    0.000000
   180  O     s     0.476576    0.684070    0.882203    0.000000
   181  O     s     0.400344    0.744579    0.000225    0.000000
   182  O     s     0.335876    0.089296    0.500225    0.000000
   183  O     s     0.254883    0.906949    0.500225    0.000000
   184  O     s     0.525053    0.173559    0.500225    0.000000
   185  O     s     0.155704    0.315211    0.675651    0.000000
   186  O     s     0.303182    0.428062    0.678794    0.000000
   187  O     s     0.276643    0.277812    0.680386    0.000000
   188  O     s     0.877496    0.574727    0.702999    0.000000
   189  O     s     0.730518    0.463269    0.674363    0.000000
   190  O     s     0.836937    0.420360    0.706926    0.000000
   191  O     s     0.793114    0.478294    0.882203    0.000000
   192  O     s     0.656373    0.402061    0.000225    0.000000
   193  O     s     0.247188    0.337594    0.500225    0.000000
   194  O     s     0.348542    0.256601    0.500225    0.000000
   195  O     s     0.352102    0.526771    0.500225    0.000000
   196  O     s     0.841100    0.157421    0.675651    0.000000
   197  O     s     0.875727    0.304900    0.678794    0.000000
   198  O     s     0.999439    0.278361    0.680386    0.000000
   199  O     s     0.303376    0.879213    0.703000    0.000000
   200  O     s     0.267857    0.732235    0.674363    0.000000
   201  O     s     0.417185    0.838655    0.706926    0.000000
   202  O     s     0.315428    0.794831    0.882203    0.000000
   203  O     s     0.254919    0.658090    0.000225    0.000000
   204  O     s     0.910202    0.248905    0.500225    0.000000
   205  O     s     0.092549    0.350259    0.500225    0.000000
   206  O     s     0.825939    0.353819    0.500225    0.000000
   207  O     s     0.684286    0.842818    0.675651    0.000000
   208  O     s     0.571435    0.877445    0.678794    0.000000
   209  O     s     0.721685    0.001156    0.680386    0.000000
   210  O     s     0.424771    0.305094    0.702999    0.000000
   211  O     s     0.536229    0.269574    0.674363    0.000000
   212  O     s     0.579138    0.418902    0.706926    0.000000
   213  O     s     0.521204    0.317146    0.882203    0.000000
   214  O     s     0.597436    0.256637    0.000225    0.000000
   215  O     s     0.661904    0.911919    0.500225    0.000000
   216  O     s     0.742897    0.094266    0.500225    0.000000
   217  O     s     0.472727    0.827656    0.500225    0.000000
   218  O     s     0.842076    0.686004    0.675651    0.000000
   219  O     s     0.694598    0.573153    0.678794    0.000000
   220  O     s     0.721137    0.723403    0.680386    0.000000
   221  O     s     0.120284    0.426488    0.702999    0.000000
   222  O     s     0.267262    0.537946    0.674363    0.000000
   223  O     s     0.160843    0.580855    0.706926    0.000000
   224  O     s     0.204666    0.522922    0.882203    0.000000
   225  O     s     0.341407    0.599154    0.000225    0.000000
   226  O     s     0.750592    0.663622    0.500225    0.000000
   227  O     s     0.649238    0.744615    0.500225    0.000000
   228  O     s     0.645678    0.474444    0.500225    0.000000
   229  O     s     0.841100    0.157421    0.324799    0.000000
   230  O     s     0.875727    0.304900    0.321656    0.000000
   231  O     s     0.999439    0.278361    0.320063    0.000000
   232  O     s     0.303376    0.879213    0.297450    0.000000
   233  O     s     0.267857    0.732235    0.326086    0.000000
   234  O     s     0.417185    0.838655    0.293524    0.000000
   235  O     s     0.315428    0.794831    0.118247    0.000000
   236  O     s     0.684286    0.842818    0.324799    0.000000
   237  O     s     0.571435    0.877445    0.321656    0.000000
   238  O     s     0.721685    0.001156    0.320063    0.000000
   239  O     s     0.424771    0.305094    0.297450    0.000000
   240  O     s     0.536229    0.269574    0.326086    0.000000
   241  O     s     0.579138    0.418902    0.293524    0.000000
   242  O     s     0.521204    0.317146    0.118247    0.000000
   243  O     s     0.842076    0.686004    0.324799    0.000000
   244  O     s     0.694598    0.573153    0.321656    0.000000
   245  O     s     0.721137    0.723403    0.320063    0.000000
   246  O     s     0.120284    0.426488    0.297450    0.000000
   247  O     s     0.267262    0.537946    0.326086    0.000000
   248  O     s     0.160843    0.580855    0.293524    0.000000
   249  O     s     0.204666    0.522922    0.118247    0.000000
   250  O     s     0.156680    0.843794    0.324799    0.000000
   251  O     s     0.122053    0.696316    0.321656    0.000000
   252  O     s     0.998341    0.722854    0.320063    0.000000
   253  O     s     0.694404    0.122002    0.297450    0.000000
   254  O     s     0.729923    0.268980    0.326086    0.000000
   255  O     s     0.580595    0.162561    0.293524    0.000000
   256  O     s     0.682352    0.206384    0.118247    0.000000
   257  O     s     0.313494    0.158398    0.324799    0.000000
   258  O     s     0.426345    0.123770    0.321656    0.000000
   259  O     s     0.276095    0.000059    0.320063    0.000000
   260  O     s     0.573009    0.696121    0.297450    0.000000
   261  O     s     0.461551    0.731641    0.326086    0.000000
   262  O     s     0.418642    0.582313    0.293524    0.000000
   263  O     s     0.476576    0.684070    0.118247    0.000000
   264  O     s     0.155704    0.315211    0.324799    0.000000
   265  O     s     0.303182    0.428062    0.321656    0.000000
   266  O     s     0.276643    0.277812    0.320063    0.000000
   267  O     s     0.877496    0.574727    0.297450    0.000000
   268  O     s     0.730518    0.463269    0.326086    0.000000
   269  O     s     0.836937    0.420360    0.293524    0.000000
   270  O     s     0.793114    0.478294    0.118247    0.000000
--------------------------------------------------------------------------------

  Final internal derivatives :

--------------------------------------------------------------------------------
   No.  Atomic          a             b             c           Radius
        Label          (eV)          (eV)          (eV)        (eV/Angs)
--------------------------------------------------------------------------------
      1 Si    c       0.000000      0.000000      0.000000      0.000000
      2 Si    c       0.000000      0.000000      0.000000      0.000000
      3 Si    c       0.000000      0.000000      0.000000      0.000000
      4 Si    c       0.000000      0.000000      0.000000      0.000000
      5 O     c       0.000000      0.000000      0.000000      0.000000
      6 O     c       0.000000      0.000000      0.000000      0.000000
      7 O     c       0.000000      0.000000      0.000000      0.000000
      8 O     c       0.000000      0.000000      0.000000      0.000000
      9 O     c       0.000000      0.000000      0.000000      0.000000
     10 O     c       0.000000      0.000000      0.000000      0.000000
     11 O     c       0.000000      0.000000      0.000000      0.000000
     12 Si    c       0.000000      0.000000      0.000000      0.000000
     13 O     c       0.000000      0.000000      0.000000      0.000000
     14 O     c       0.000000      0.000000      0.000000      0.000000
     15 O     c       0.000000      0.000000      0.000000      0.000000
     16 O     c       0.000000      0.000000      0.000000      0.000000
     17 Si    c       0.000000      0.000000      0.000000      0.000000
     18 Si    c       0.000000      0.000000      0.000000      0.000000
     19 Si    c       0.000000      0.000000      0.000000      0.000000
     20 Si    c       0.000000      0.000000      0.000000      0.000000
     21 O     c       0.000000      0.000000      0.000000      0.000000
     22 O     c       0.000000      0.000000      0.000000      0.000000
     23 O     c       0.000000      0.000000      0.000000      0.000000
     24 O     c       0.000000      0.000000      0.000000      0.000000
     25 O     c       0.000000      0.000000      0.000000      0.000000
     26 O     c       0.000000      0.000000      0.000000      0.000000
     27 O     c       0.000000      0.000000      0.000000      0.000000
     28 Si    c       0.000000      0.000000      0.000000      0.000000
     29 O     c       0.000000      0.000000      0.000000      0.000000
     30 O     c       0.000000      0.000000      0.000000      0.000000
     31 O     c       0.000000      0.000000      0.000000      0.000000
     32 O     c       0.000000      0.000000      0.000000      0.000000
     33 Si    c       0.000000      0.000000      0.000000      0.000000
     34 Si    c       0.000000      0.000000      0.000000      0.000000
     35 Si    c       0.000000      0.000000      0.000000      0.000000
     36 Si    c       0.000000      0.000000      0.000000      0.000000
     37 O     c       0.000000      0.000000      0.000000      0.000000
     38 O     c       0.000000      0.000000      0.000000      0.000000
     39 O     c       0.000000      0.000000      0.000000      0.000000
     40 O     c       0.000000      0.000000      0.000000      0.000000
     41 O     c       0.000000      0.000000      0.000000      0.000000
     42 O     c       0.000000      0.000000      0.000000      0.000000
     43 O     c       0.000000      0.000000      0.000000      0.000000
     44 Si    c       0.000000      0.000000      0.000000      0.000000
     45 O     c       0.000000      0.000000      0.000000      0.000000
     46 O     c       0.000000      0.000000      0.000000      0.000000
     47 O     c       0.000000      0.000000      0.000000      0.000000
     48 O     c       0.000000      0.000000      0.000000      0.000000
     49 Si    c       0.000000      0.000000      0.000000      0.000000
     50 Si    c       0.000000      0.000000      0.000000      0.000000
     51 Si    c       0.000000      0.000000      0.000000      0.000000
     52 Si    c       0.000000      0.000000      0.000000      0.000000
     53 O     c       0.000000      0.000000      0.000000      0.000000
     54 O     c       0.000000      0.000000      0.000000      0.000000
     55 O     c       0.000000      0.000000      0.000000      0.000000
     56 O     c       0.000000      0.000000      0.000000      0.000000
     57 O     c       0.000000      0.000000      0.000000      0.000000
     58 O     c       0.000000      0.000000      0.000000      0.000000
     59 O     c       0.000000      0.000000      0.000000      0.000000
     60 Si    c       0.000000      0.000000      0.000000      0.000000
     61 O     c       0.000000      0.000000      0.000000      0.000000
     62 O     c       0.000000      0.000000      0.000000      0.000000
     63 O     c       0.000000      0.000000      0.000000      0.000000
     64 O     c       0.000000      0.000000      0.000000      0.000000
     65 Si    c       0.000000      0.000000      0.000000      0.000000
     66 Si    c       0.000000      0.000000      0.000000      0.000000
     67 Si    c       0.000000      0.000000      0.000000      0.000000
     68 Si    c       0.000000      0.000000      0.000000      0.000000
     69 O     c       0.000000      0.000000      0.000000      0.000000
     70 O     c       0.000000      0.000000      0.000000      0.000000
     71 O     c       0.000000      0.000000      0.000000      0.000000
     72 O     c       0.000000      0.000000      0.000000      0.000000
     73 O     c       0.000000      0.000000      0.000000      0.000000
     74 O     c       0.000000      0.000000      0.000000      0.000000
     75 O     c       0.000000      0.000000      0.000000      0.000000
     76 Si    c       0.000000      0.000000      0.000000      0.000000
     77 O     c       0.000000      0.000000      0.000000      0.000000
     78 O     c       0.000000      0.000000      0.000000      0.000000
     79 O     c       0.000000      0.000000      0.000000      0.000000
     80 O     c       0.000000      0.000000      0.000000      0.000000
     81 Si    c       0.000000      0.000000      0.000000      0.000000
     82 Si    c       0.000000      0.000000      0.000000      0.000000
     83 Si    c       0.000000      0.000000      0.000000      0.000000
     84 Si    c       0.000000      0.000000      0.000000      0.000000
     85 O     c       0.000000      0.000000      0.000000      0.000000
     86 O     c       0.000000      0.000000      0.000000      0.000000
     87 O     c       0.000000      0.000000      0.000000      0.000000
     88 O     c       0.000000      0.000000      0.000000      0.000000
     89 O     c       0.000000      0.000000      0.000000      0.000000
     90 O     c       0.000000      0.000000      0.000000      0.000000
     91 O     c       0.000000      0.000000      0.000000      0.000000
     92 Si    c       0.000000      0.000000      0.000000      0.000000
     93 O     c       0.000000      0.000000      0.000000      0.000000
     94 O     c       0.000000      0.000000      0.000000      0.000000
     95 O     c       0.000000      0.000000      0.000000      0.000000
     96 O     c       0.000000      0.000000      0.000000      0.000000
     97 Si    c       0.000000      0.000000      0.000000      0.000000
     98 Si    c       0.000000      0.000000      0.000000      0.000000
     99 Si    c       0.000000      0.000000      0.000000      0.000000
    100 Si    c       0.000000      0.000000      0.000000      0.000000
    101 O     c       0.000000      0.000000      0.000000      0.000000
    102 O     c       0.000000      0.000000      0.000000      0.000000
    103 O     c       0.000000      0.000000      0.000000      0.000000
    104 O     c       0.000000      0.000000      0.000000      0.000000
    105 O     c       0.000000      0.000000      0.000000      0.000000
    106 O     c       0.000000      0.000000      0.000000      0.000000
    107 O     c       0.000000      0.000000      0.000000      0.000000
    108 Si    c       0.000000      0.000000      0.000000      0.000000
    109 Si    c       0.000000      0.000000      0.000000      0.000000
    110 Si    c       0.000000      0.000000      0.000000      0.000000
    111 Si    c       0.000000      0.000000      0.000000      0.000000
    112 O     c       0.000000      0.000000      0.000000      0.000000
    113 O     c       0.000000      0.000000      0.000000      0.000000
    114 O     c       0.000000      0.000000      0.000000      0.000000
    115 O     c       0.000000      0.000000      0.000000      0.000000
    116 O     c       0.000000      0.000000      0.000000      0.000000
    117 O     c       0.000000      0.000000      0.000000      0.000000
    118 O     c       0.000000      0.000000      0.000000      0.000000
    119 Si    c       0.000000      0.000000      0.000000      0.000000
    120 Si    c       0.000000      0.000000      0.000000      0.000000
    121 Si    c       0.000000      0.000000      0.000000      0.000000
    122 Si    c       0.000000      0.000000      0.000000      0.000000
    123 O     c       0.000000      0.000000      0.000000      0.000000
    124 O     c       0.000000      0.000000      0.000000      0.000000
    125 O     c       0.000000      0.000000      0.000000      0.000000
    126 O     c       0.000000      0.000000      0.000000      0.000000
    127 O     c       0.000000      0.000000      0.000000      0.000000
    128 O     c       0.000000      0.000000      0.000000      0.000000
    129 O     c       0.000000      0.000000      0.000000      0.000000
    130 Si    c       0.000000      0.000000      0.000000      0.000000
    131 Si    c       0.000000      0.000000      0.000000      0.000000
    132 Si    c       0.000000      0.000000      0.000000      0.000000
    133 Si    c       0.000000      0.000000      0.000000      0.000000
    134 O     c       0.000000      0.000000      0.000000      0.000000
    135 O     c       0.000000      0.000000      0.000000      0.000000
    136 O     c       0.000000      0.000000      0.000000      0.000000
    137 O     c       0.000000      0.000000      0.000000      0.000000
    138 O     c       0.000000      0.000000      0.000000      0.000000
    139 O     c       0.000000      0.000000      0.000000      0.000000
    140 O     c       0.000000      0.000000      0.000000      0.000000
    141 Si    c       0.000000      0.000000      0.000000      0.000000
    142 Si    c       0.000000      0.000000      0.000000      0.000000
    143 Si    c       0.000000      0.000000      0.000000      0.000000
    144 Si    c       0.000000      0.000000      0.000000      0.000000
    145 O     c       0.000000      0.000000      0.000000      0.000000
    146 O     c       0.000000      0.000000      0.000000      0.000000
    147 O     c       0.000000      0.000000      0.000000      0.000000
    148 O     c       0.000000      0.000000      0.000000      0.000000
    149 O     c       0.000000      0.000000      0.000000      0.000000
    150 O     c       0.000000      0.000000      0.000000      0.000000
    151 O     c       0.000000      0.000000      0.000000      0.000000
    152 Si    c       0.000000      0.000000      0.000000      0.000000
    153 Si    c       0.000000      0.000000      0.000000      0.000000
    154 Si    c       0.000000      0.000000      0.000000      0.000000
    155 Si    c       0.000000      0.000000      0.000000      0.000000
    156 O     c       0.000000      0.000000      0.000000      0.000000
    157 O     c       0.000000      0.000000      0.000000      0.000000
    158 O     c       0.000000      0.000000      0.000000      0.000000
    159 O     c       0.000000      0.000000      0.000000      0.000000
    160 O     c       0.000000      0.000000      0.000000      0.000000
    161 O     c       0.000000      0.000000      0.000000      0.000000
    162 O     c       0.000000      0.000000      0.000000      0.000000
    163 O     s      -0.002209      0.002273      0.001588      0.000000
    164 O     s      -0.000939     -0.000953      0.001706      0.000000
    165 O     s      -0.000953      0.001782      0.001747      0.000000
    166 O     s      -0.001046     -0.001318      0.000804      0.000000
    167 O     s      -0.001978      0.001499     -0.000736      0.000000
    168 O     s      -0.000327     -0.002242      0.000706      0.000000
    169 O     s       0.001976     -0.002654      0.000695      0.000000
    170 O     s       0.003492     -0.001477      0.000000      0.000000
    171 O     s      -0.000489      0.000023      0.000000      0.000000
    172 O     s       0.000795     -0.001293      0.000000      0.000000
    173 O     s       0.000070     -0.001627      0.000000      0.000000
    174 O     s      -0.002273      0.000064      0.001588      0.000000
    175 O     s       0.000953     -0.001892      0.001706      0.000000
    176 O     s      -0.001782      0.000829      0.001747      0.000000
    177 O     s       0.001318     -0.002364      0.000804      0.000000
    178 O     s      -0.001499     -0.000479     -0.000736      0.000000
    179 O     s       0.002242     -0.002569      0.000706      0.000000
    180 O     s       0.002654     -0.000678      0.000695      0.000000
    181 O     s       0.001477      0.002015      0.000000      0.000000
    182 O     s      -0.000023     -0.000466     -0.000000      0.000000
    183 O     s       0.001293     -0.000498     -0.000000      0.000000
    184 O     s       0.001627     -0.001557     -0.000000      0.000000
    185 O     s      -0.000064     -0.002209      0.001588      0.000000
    186 O     s       0.001892     -0.000939      0.001706      0.000000
    187 O     s      -0.000829     -0.000953      0.001747      0.000000
    188 O     s       0.002364     -0.001046      0.000804      0.000000
    189 O     s       0.000479     -0.001978     -0.000736      0.000000
    190 O     s       0.002568     -0.000327      0.000706      0.000000
    191 O     s       0.000678      0.001976      0.000695      0.000000
    192 O     s      -0.002015      0.003492      0.000000      0.000000
    193 O     s       0.000466     -0.000489     -0.000000      0.000000
    194 O     s       0.000498      0.000795      0.000000      0.000000
    195 O     s       0.001557      0.000070      0.000000      0.000000
    196 O     s       0.002209     -0.002273      0.001588      0.000000
    197 O     s       0.000939      0.000953      0.001706      0.000000
    198 O     s       0.000953     -0.001782      0.001747      0.000000
    199 O     s       0.001046      0.001318      0.000804      0.000000
    200 O     s       0.001978     -0.001499     -0.000736      0.000000
    201 O     s       0.000327      0.002242      0.000706      0.000000
    202 O     s      -0.001976      0.002654      0.000695      0.000000
    203 O     s      -0.003492      0.001477      0.000000      0.000000
    204 O     s       0.000489     -0.000023     -0.000000      0.000000
    205 O     s      -0.000795      0.001293      0.000000      0.000000
    206 O     s      -0.000070      0.001627      0.000000      0.000000
    207 O     s       0.002273     -0.000064      0.001588      0.000000
    208 O     s      -0.000953      0.001892      0.001706      0.000000
    209 O     s       0.001782     -0.000829      0.001747      0.000000
    210 O     s      -0.001318      0.002364      0.000804      0.000000
    211 O     s       0.001499      0.000479     -0.000736      0.000000
    212 O     s      -0.002242      0.002569      0.000706      0.000000
    213 O     s      -0.002654      0.000678      0.000695      0.000000
    214 O     s      -0.001477     -0.002015      0.000000      0.000000
    215 O     s       0.000023      0.000466     -0.000000      0.000000
    216 O     s      -0.001293      0.000498      0.000000      0.000000
    217 O     s      -0.001627      0.001557     -0.000000      0.000000
    218 O     s       0.000064      0.002209      0.001588      0.000000
    219 O     s      -0.001892      0.000939      0.001706      0.000000
    220 O     s       0.000829      0.000953      0.001747      0.000000
    221 O     s      -0.002364      0.001046      0.000804      0.000000
    222 O     s      -0.000479      0.001978     -0.000736      0.000000
    223 O     s      -0.002568      0.000327      0.000706      0.000000
    224 O     s      -0.000678     -0.001976      0.000695      0.000000
    225 O     s       0.002015     -0.003492      0.000000      0.000000
    226 O     s      -0.000466      0.000489     -0.000000      0.000000
    227 O     s      -0.000498     -0.000795      0.000000      0.000000
    228 O     s      -0.001557     -0.000070     -0.000000      0.000000
    229 O     s       0.002209     -0.002273     -0.001588      0.000000
    230 O     s       0.000939      0.000953     -0.001706      0.000000
    231 O     s       0.000953     -0.001782     -0.001747      0.000000
    232 O     s       0.001046      0.001318     -0.000804      0.000000
    233 O     s       0.001978     -0.001499      0.000736      0.000000
    234 O     s       0.000327      0.002242     -0.000706      0.000000
    235 O     s      -0.001976      0.002654     -0.000695      0.000000
    236 O     s       0.002273     -0.000064     -0.001588      0.000000
    237 O     s      -0.000953      0.001892     -0.001706      0.000000
    238 O     s       0.001782     -0.000829     -0.001747      0.000000
    239 O     s      -0.001318      0.002364     -0.000804      0.000000
    240 O     s       0.001499      0.000479      0.000736      0.000000
    241 O     s      -0.002242      0.002569     -0.000706      0.000000
    242 O     s      -0.002654      0.000678     -0.000695      0.000000
    243 O     s       0.000064      0.002209     -0.001588      0.000000
    244 O     s      -0.001892      0.000939     -0.001706      0.000000
    245 O     s       0.000829      0.000953     -0.001747      0.000000
    246 O     s      -0.002364      0.001046     -0.000804      0.000000
    247 O     s      -0.000479      0.001978      0.000736      0.000000
    248 O     s      -0.002569      0.000327     -0.000706      0.000000
    249 O     s      -0.000678     -0.001976     -0.000695      0.000000
    250 O     s      -0.002209      0.002273     -0.001588      0.000000
    251 O     s      -0.000939     -0.000953     -0.001706      0.000000
    252 O     s      -0.000953      0.001782     -0.001747      0.000000
    253 O     s      -0.001046     -0.001318     -0.000804      0.000000
    254 O     s      -0.001978      0.001499      0.000736      0.000000
    255 O     s      -0.000327     -0.002242     -0.000706      0.000000
    256 O     s       0.001976     -0.002654     -0.000695      0.000000
    257 O     s      -0.002273      0.000064     -0.001588      0.000000
    258 O     s       0.000953     -0.001892     -0.001706      0.000000
    259 O     s      -0.001782      0.000829     -0.001747      0.000000
    260 O     s       0.001318     -0.002364     -0.000804      0.000000
    261 O     s      -0.001499     -0.000479      0.000736      0.000000
    262 O     s       0.002242     -0.002569     -0.000706      0.000000
    263 O     s       0.002654     -0.000678     -0.000695      0.000000
    264 O     s      -0.000064     -0.002209     -0.001588      0.000000
    265 O     s       0.001892     -0.000939     -0.001706      0.000000
    266 O     s      -0.000829     -0.000953     -0.001747      0.000000
    267 O     s       0.002364     -0.001046     -0.000804      0.000000
    268 O     s       0.000479     -0.001978      0.000736      0.000000
    269 O     s       0.002568     -0.000327     -0.000706      0.000000
    270 O     s       0.000678      0.001976     -0.000695      0.000000
--------------------------------------------------------------------------------
  Maximum abs         0.003492      0.003492      0.001747      0.000000
--------------------------------------------------------------------------------


  Time to end of optimisation =      12.1054 seconds


  Peak dynamic memory used =       5.97 MB 


  Timing analysis for GULP :

--------------------------------------------------------------------------------
  Task / Subroutine                                          Time (Seconds)
--------------------------------------------------------------------------------
  Calculation of reciprocal space energy and derivatives          2.8715
  Calculation of real space energy and derivatives                6.5364
  Calculation of three-body energy and derivatives                2.1715
  Calculation and manipulation of Hessian matrix                  0.4695
  Calculation of matrix inversion                                 0.0104
  Symmetry generation of equivalent positions                     0.0002
--------------------------------------------------------------------------------
  Total CPU time                                                 12.1055
--------------------------------------------------------------------------------


  Dump file written as ReferenceDataBase/8325000_111.grs
  CIF file written as ReferenceDataBase/8325000_111_opt.cif


  Job Finished at 00:44.11  6th February   2024                               

