********************************************************************************
*                       GENERAL UTILITY LATTICE PROGRAM                        *
*                                 Julian Gale                                  *
*                       Curtin Institute for Computation                       *
*                    School of Molecular and Life Sciences                     *
*                    Curtin University, Western Australia                      *
********************************************************************************
* Version = 6.1.2 * Last modified =   3rd November 2022                        *
********************************************************************************
*  optimise     - perform optimisation run                                     *
*  conv         - constant volume calculation                                  *
*  shell        - only shells and radii to be optimised                        *
*  nosymmetry   - turn off symmetry after initial structure generation         *
********************************************************************************

  Job Started  at 00:44.12  6th February   2024                               

  Number of CPUs =     1


  Total number of configurations input =      1

********************************************************************************
*  Input for Configuration =   1 : ReferenceDataBase/8328529_111               *
********************************************************************************

  Formula = Si144O288                                                   

  Number of irreducible atoms/shells =     720


  Total number atoms/shells =     720

  Dimensionality = 3               :  Bulk   



  Cartesian lattice vectors (Angstroms) :

       22.529300    0.000000    0.000000
      -11.264650   19.510946    0.000000
        0.000000    0.000000   20.057500

  Cell parameters (Angstroms/Degrees):

  a =      22.5293    alpha =  90.0000
  b =      22.5293    beta  =  90.0000
  c =      20.0575    gamma = 120.0000

  Initial cell volume =        8816.634330 Angs**3

  Temperature of configuration =   0.00     K 

  Pressure of configuration =         0.000 GPa 

  Fractional coordinates of asymmetric unit :

--------------------------------------------------------------------------------
   No.  Atomic       x           y          z         Charge      Occupancy
        Label      (Frac)      (Frac)     (Frac)        (e)         (Frac)  
--------------------------------------------------------------------------------
      1 Si    c    0.921653    0.721451    0.623439     4.00000    1.000000    
      2 Si    c    0.280801    0.211463    0.778182     4.00000    1.000000    
      3 Si    c    0.565187    0.720647    0.427379     4.00000    1.000000    
      4 Si    c    0.664305    0.201427    0.927483     4.00000    1.000000    
      5 Si    c    0.849056    0.570994    0.808481     4.00000    1.000000    
      6 Si    c    0.077091    0.473971    0.315124     4.00000    1.000000    
      7 O     c    0.918089    0.700907    0.700796     0.86902    1.000000    
      8 O     c    0.899511    0.653490    0.581327     0.86902    1.000000    
      9 O     c    0.350065    0.257398    0.819365     0.86902    1.000000    
     10 O     c    0.527475    0.653982    0.381420     0.86902    1.000000    
     11 O     c    0.680143    0.154561    0.879028     0.86902    1.000000    
     12 O     c    0.879690    0.542661    0.753770     0.86902    1.000000    
     13 O     c    0.871239    0.751504    0.608686     0.86902    1.000000    
     14 O     c    0.592554    0.194135    0.906305     0.86902    1.000000    
     15 O     c    0.773204    0.555436    0.786440     0.86902    1.000000    
     16 O     c    0.997719    0.779645    0.602593     0.86902    1.000000    
     17 O     c    0.997719    0.412882    0.317505     0.86902    1.000000    
     18 O     c    0.250585    0.130898    0.792859     0.86902    1.000000    
     19 O     c    0.223209    0.229955    0.799727     0.86902    1.000000    
     20 O     c    0.540676    0.697450    0.502925     0.86902    1.000000    
     21 O     c    0.547557    0.779384    0.404750     0.86902    1.000000    
     22 O     c    0.081213    0.546212    0.309668     0.86902    1.000000    
     23 O     c    0.721328    0.280856    0.920557     0.86902    1.000000    
     24 O     c    0.661876    0.175470    0.002925     0.86902    1.000000    
     25 Si    c    0.204667    0.928399    0.623439     4.00000    1.000000    
     26 Si    c    0.073803    0.287547    0.778182     4.00000    1.000000    
     27 Si    c    0.849006    0.571933    0.427379     4.00000    1.000000    
     28 Si    c    0.467343    0.671051    0.927483     4.00000    1.000000    
     29 Si    c    0.282526    0.855802    0.808481     4.00000    1.000000    
     30 Si    c    0.607585    0.083837    0.315124     4.00000    1.000000    
     31 O     c    0.221648    0.924835    0.700796     0.86902    1.000000    
     32 O     c    0.250486    0.906257    0.581327     0.86902    1.000000    
     33 O     c    0.097132    0.356811    0.819365     0.86902    1.000000    
     34 O     c    0.877958    0.534221    0.381420     0.86902    1.000000    
     35 O     c    0.530048    0.686889    0.879028     0.86902    1.000000    
     36 O     c    0.341494    0.886436    0.753770     0.86902    1.000000    
     37 O     c    0.124199    0.877985    0.608686     0.86902    1.000000    
     38 O     c    0.402884    0.599300    0.906305     0.86902    1.000000    
     39 O     c    0.222234    0.779950    0.786440     0.86902    1.000000    
     40 O     c    0.222539    0.004465    0.602593     0.86902    1.000000    
     41 O     c    0.589302    0.004465    0.317505     0.86902    1.000000    
     42 O     c    0.124152    0.257331    0.792859     0.86902    1.000000    
     43 O     c    0.997719    0.229955    0.799727     0.86902    1.000000    
     44 O     c    0.847691    0.547422    0.502925     0.86902    1.000000    
     45 O     c    0.772638    0.554303    0.404750     0.86902    1.000000    
     46 O     c    0.539466    0.087959    0.309668     0.86902    1.000000    
     47 O     c    0.444937    0.728074    0.920557     0.86902    1.000000    
     48 O     c    0.490871    0.668622    0.002925     0.86902    1.000000    
     49 Si    c    0.280733    0.211413    0.623439     4.00000    1.000000    
     50 Si    c    0.790721    0.080549    0.778182     4.00000    1.000000    
     51 Si    c    0.281537    0.855752    0.427379     4.00000    1.000000    
     52 Si    c    0.800757    0.474089    0.927483     4.00000    1.000000    
     53 Si    c    0.431189    0.289272    0.808481     4.00000    1.000000    
     54 Si    c    0.528213    0.614331    0.315124     4.00000    1.000000    
     55 O     c    0.301277    0.228394    0.700796     0.86902    1.000000    
     56 O     c    0.348694    0.257232    0.581327     0.86902    1.000000    
     57 O     c    0.744786    0.103878    0.819365     0.86902    1.000000    
     58 O     c    0.348202    0.884704    0.381420     0.86902    1.000000    
     59 O     c    0.847623    0.536794    0.879028     0.86902    1.000000    
     60 O     c    0.459523    0.348240    0.753770     0.86902    1.000000    
     61 O     c    0.250680    0.130945    0.608686     0.86902    1.000000    
     62 O     c    0.808049    0.409630    0.906305     0.86902    1.000000    
     63 O     c    0.446748    0.228980    0.786440     0.86902    1.000000    
     64 O     c    0.222539    0.229285    0.602593     0.86902    1.000000    
     65 O     c    0.589302    0.596048    0.317505     0.86902    1.000000    
     66 O     c    0.871286    0.130898    0.792859     0.86902    1.000000    
     67 O     c    0.772229    0.004465    0.799727     0.86902    1.000000    
     68 O     c    0.304734    0.854437    0.502925     0.86902    1.000000    
     69 O     c    0.222800    0.779384    0.404750     0.86902    1.000000    
     70 O     c    0.455972    0.546212    0.309668     0.86902    1.000000    
     71 O     c    0.721328    0.451683    0.920557     0.86902    1.000000    
     72 O     c    0.826714    0.497617    0.002925     0.86902    1.000000    
     73 Si    c    0.073785    0.287479    0.623439     4.00000    1.000000    
     74 Si    c    0.714637    0.797467    0.778182     4.00000    1.000000    
     75 Si    c    0.430251    0.288283    0.427379     4.00000    1.000000    
     76 Si    c    0.331133    0.807503    0.927483     4.00000    1.000000    
     77 Si    c    0.146382    0.437935    0.808481     4.00000    1.000000    
     78 Si    c    0.918347    0.534959    0.315124     4.00000    1.000000    
     79 O     c    0.077348    0.308023    0.700796     0.86902    1.000000    
     80 O     c    0.095927    0.355440    0.581327     0.86902    1.000000    
     81 O     c    0.645373    0.751532    0.819365     0.86902    1.000000    
     82 O     c    0.467963    0.354948    0.381420     0.86902    1.000000    
     83 O     c    0.315295    0.854369    0.879028     0.86902    1.000000    
     84 O     c    0.115748    0.466269    0.753770     0.86902    1.000000    
     85 O     c    0.124199    0.257426    0.608686     0.86902    1.000000    
     86 O     c    0.402884    0.814795    0.906305     0.86902    1.000000    
     87 O     c    0.222234    0.453494    0.786440     0.86902    1.000000    
     88 O     c    0.997719    0.229285    0.602593     0.86902    1.000000    
     89 O     c    0.997719    0.596048    0.317505     0.86902    1.000000    
     90 O     c    0.744853    0.878032    0.792859     0.86902    1.000000    
     91 O     c    0.772229    0.778975    0.799727     0.86902    1.000000    
     92 O     c    0.454762    0.311480    0.502925     0.86902    1.000000    
     93 O     c    0.447881    0.229546    0.404750     0.86902    1.000000    
     94 O     c    0.914225    0.462718    0.309668     0.86902    1.000000    
     95 O     c    0.274110    0.728074    0.920557     0.86902    1.000000    
     96 O     c    0.333562    0.833460    0.002925     0.86902    1.000000    
     97 Si    c    0.790771    0.080531    0.623439     4.00000    1.000000    
     98 Si    c    0.921635    0.721383    0.778182     4.00000    1.000000    
     99 Si    c    0.146432    0.436997    0.427379     4.00000    1.000000    
    100 Si    c    0.528095    0.337879    0.927483     4.00000    1.000000    
    101 Si    c    0.712912    0.153128    0.808481     4.00000    1.000000    
    102 Si    c    0.387853    0.925093    0.315124     4.00000    1.000000    
    103 O     c    0.773790    0.084094    0.700796     0.86902    1.000000    
    104 O     c    0.744952    0.102673    0.581327     0.86902    1.000000    
    105 O     c    0.898305    0.652119    0.819365     0.86902    1.000000    
    106 O     c    0.117480    0.474709    0.381420     0.86902    1.000000    
    107 O     c    0.465390    0.322041    0.879028     0.86902    1.000000    
    108 O     c    0.653944    0.122494    0.753770     0.86902    1.000000    
    109 O     c    0.871239    0.130945    0.608686     0.86902    1.000000    
    110 O     c    0.592554    0.409630    0.906305     0.86902    1.000000    
    111 O     c    0.773204    0.228980    0.786440     0.86902    1.000000    
    112 O     c    0.772899    0.004465    0.602593     0.86902    1.000000    
    113 O     c    0.406136    0.004465    0.317505     0.86902    1.000000    
    114 O     c    0.871286    0.751599    0.792859     0.86902    1.000000    
    115 O     c    0.997719    0.778975    0.799727     0.86902    1.000000    
    116 O     c    0.147747    0.461508    0.502925     0.86902    1.000000    
    117 O     c    0.222800    0.454627    0.404750     0.86902    1.000000    
    118 O     c    0.455972    0.920971    0.309668     0.86902    1.000000    
    119 O     c    0.550501    0.280856    0.920557     0.86902    1.000000    
    120 O     c    0.504567    0.340308    0.002925     0.86902    1.000000    
    121 Si    c    0.714705    0.797517    0.623439     4.00000    1.000000    
    122 Si    c    0.204717    0.928381    0.778182     4.00000    1.000000    
    123 Si    c    0.713901    0.153178    0.427379     4.00000    1.000000    
    124 Si    c    0.194681    0.534841    0.927483     4.00000    1.000000    
    125 Si    c    0.564248    0.719658    0.808481     4.00000    1.000000    
    126 Si    c    0.467225    0.394599    0.315124     4.00000    1.000000    
    127 O     c    0.694161    0.780536    0.700796     0.86902    1.000000    
    128 O     c    0.646744    0.751698    0.581327     0.86902    1.000000    
    129 O     c    0.250652    0.905052    0.819365     0.86902    1.000000    
    130 O     c    0.647236    0.124226    0.381420     0.86902    1.000000    
    131 O     c    0.147815    0.472136    0.879028     0.86902    1.000000    
    132 O     c    0.535915    0.660690    0.753770     0.86902    1.000000    
    133 O     c    0.744758    0.877985    0.608686     0.86902    1.000000    
    134 O     c    0.187389    0.599300    0.906305     0.86902    1.000000    
    135 O     c    0.548690    0.779950    0.786440     0.86902    1.000000    
    136 O     c    0.772899    0.779645    0.602593     0.86902    1.000000    
    137 O     c    0.406136    0.412882    0.317505     0.86902    1.000000    
    138 O     c    0.124152    0.878032    0.792859     0.86902    1.000000    
    139 O     c    0.223209    0.004465    0.799727     0.86902    1.000000    
    140 O     c    0.690704    0.154493    0.502925     0.86902    1.000000    
    141 O     c    0.772638    0.229546    0.404750     0.86902    1.000000    
    142 O     c    0.539466    0.462718    0.309668     0.86902    1.000000    
    143 O     c    0.274110    0.557247    0.920557     0.86902    1.000000    
    144 O     c    0.168724    0.511313    0.002925     0.86902    1.000000    
    145 Si    c    0.280733    0.080531    0.382411     4.00000    1.000000    
    146 Si    c    0.790721    0.721383    0.227668     4.00000    1.000000    
    147 Si    c    0.281537    0.436997    0.578471     4.00000    1.000000    
    148 Si    c    0.800757    0.337879    0.078367     4.00000    1.000000    
    149 Si    c    0.431189    0.153128    0.197369     4.00000    1.000000    
    150 Si    c    0.528213    0.925093    0.690726     4.00000    1.000000    
    151 O     c    0.301277    0.084094    0.305054     0.86902    1.000000    
    152 O     c    0.348694    0.102673    0.424523     0.86902    1.000000    
    153 O     c    0.744786    0.652119    0.186485     0.86902    1.000000    
    154 O     c    0.348202    0.474709    0.624430     0.86902    1.000000    
    155 O     c    0.847623    0.322041    0.126822     0.86902    1.000000    
    156 O     c    0.459523    0.122494    0.252080     0.86902    1.000000    
    157 O     c    0.250680    0.130945    0.397164     0.86902    1.000000    
    158 O     c    0.808049    0.409630    0.099545     0.86902    1.000000    
    159 O     c    0.446748    0.228980    0.219410     0.86902    1.000000    
    160 O     c    0.222539    0.004465    0.403257     0.86902    1.000000    
    161 O     c    0.589302    0.004465    0.688345     0.86902    1.000000    
    162 O     c    0.871286    0.751599    0.212991     0.86902    1.000000    
    163 O     c    0.772229    0.778975    0.206123     0.86902    1.000000    
    164 O     c    0.304733    0.461508    0.502925     0.86902    1.000000    
    165 O     c    0.222800    0.454627    0.601100     0.86902    1.000000    
    166 O     c    0.455972    0.920971    0.696182     0.86902    1.000000    
    167 O     c    0.721328    0.280856    0.085293     0.86902    1.000000    
    168 O     c    0.826714    0.340308    0.002925     0.86902    1.000000    
    169 Si    c    0.204667    0.287479    0.382411     4.00000    1.000000    
    170 Si    c    0.073803    0.797467    0.227668     4.00000    1.000000    
    171 Si    c    0.849006    0.288283    0.578471     4.00000    1.000000    
    172 Si    c    0.467343    0.807503    0.078367     4.00000    1.000000    
    173 Si    c    0.282526    0.437935    0.197369     4.00000    1.000000    
    174 Si    c    0.607585    0.534959    0.690726     4.00000    1.000000    
    175 O     c    0.221648    0.308023    0.305054     0.86902    1.000000    
    176 O     c    0.250486    0.355440    0.424523     0.86902    1.000000    
    177 O     c    0.097133    0.751532    0.186485     0.86902    1.000000    
    178 O     c    0.877958    0.354948    0.624430     0.86902    1.000000    
    179 O     c    0.530048    0.854369    0.126822     0.86902    1.000000    
    180 O     c    0.341494    0.466269    0.252080     0.86902    1.000000    
    181 O     c    0.124199    0.257426    0.397164     0.86902    1.000000    
    182 O     c    0.402884    0.814795    0.099545     0.86902    1.000000    
    183 O     c    0.222234    0.453494    0.219410     0.86902    1.000000    
    184 O     c    0.222539    0.229285    0.403257     0.86902    1.000000    
    185 O     c    0.589302    0.596048    0.688345     0.86902    1.000000    
    186 O     c    0.124152    0.878032    0.212991     0.86902    1.000000    
    187 O     c    0.997719    0.778975    0.206123     0.86902    1.000000    
    188 O     c    0.847691    0.311480    0.502925     0.86902    1.000000    
    189 O     c    0.772638    0.229546    0.601100     0.86902    1.000000    
    190 O     c    0.539466    0.462718    0.696182     0.86902    1.000000    
    191 O     c    0.444937    0.728074    0.085293     0.86902    1.000000    
    192 O     c    0.490871    0.833460    0.002925     0.86902    1.000000    
    193 Si    c    0.921653    0.211413    0.382411     4.00000    1.000000    
    194 Si    c    0.280801    0.080549    0.227668     4.00000    1.000000    
    195 Si    c    0.565187    0.855752    0.578471     4.00000    1.000000    
    196 Si    c    0.664305    0.474089    0.078367     4.00000    1.000000    
    197 Si    c    0.849056    0.289272    0.197369     4.00000    1.000000    
    198 Si    c    0.077091    0.614331    0.690726     4.00000    1.000000    
    199 O     c    0.918089    0.228394    0.305054     0.86902    1.000000    
    200 O     c    0.899511    0.257232    0.424523     0.86902    1.000000    
    201 O     c    0.350065    0.103878    0.186485     0.86902    1.000000    
    202 O     c    0.527475    0.884704    0.624430     0.86902    1.000000    
    203 O     c    0.680143    0.536794    0.126822     0.86902    1.000000    
    204 O     c    0.879690    0.348240    0.252080     0.86902    1.000000    
    205 O     c    0.871239    0.130945    0.397164     0.86902    1.000000    
    206 O     c    0.592554    0.409630    0.099545     0.86902    1.000000    
    207 O     c    0.773204    0.228980    0.219410     0.86902    1.000000    
    208 O     c    0.997719    0.229285    0.403257     0.86902    1.000000    
    209 O     c    0.997719    0.596048    0.688345     0.86902    1.000000    
    210 O     c    0.250585    0.130898    0.212991     0.86902    1.000000    
    211 O     c    0.223209    0.004465    0.206123     0.86902    1.000000    
    212 O     c    0.540676    0.854437    0.502925     0.86902    1.000000    
    213 O     c    0.547557    0.779384    0.601100     0.86902    1.000000    
    214 O     c    0.081213    0.546212    0.696182     0.86902    1.000000    
    215 O     c    0.721328    0.451683    0.085293     0.86902    1.000000    
    216 O     c    0.661876    0.497617    0.002925     0.86902    1.000000    
    217 Si    c    0.714705    0.928399    0.382411     4.00000    1.000000    
    218 Si    c    0.204717    0.287547    0.227668     4.00000    1.000000    
    219 Si    c    0.713901    0.571933    0.578471     4.00000    1.000000    
    220 Si    c    0.194681    0.671051    0.078367     4.00000    1.000000    
    221 Si    c    0.564248    0.855802    0.197369     4.00000    1.000000    
    222 Si    c    0.467225    0.083837    0.690726     4.00000    1.000000    
    223 O     c    0.694161    0.924835    0.305054     0.86902    1.000000    
    224 O     c    0.646744    0.906257    0.424523     0.86902    1.000000    
    225 O     c    0.250652    0.356811    0.186485     0.86902    1.000000    
    226 O     c    0.647236    0.534221    0.624430     0.86902    1.000000    
    227 O     c    0.147815    0.686889    0.126822     0.86902    1.000000    
    228 O     c    0.535915    0.886436    0.252080     0.86902    1.000000    
    229 O     c    0.744758    0.877985    0.397164     0.86902    1.000000    
    230 O     c    0.187389    0.599300    0.099545     0.86902    1.000000    
    231 O     c    0.548690    0.779950    0.219410     0.86902    1.000000    
    232 O     c    0.772899    0.004465    0.403257     0.86902    1.000000    
    233 O     c    0.406136    0.004465    0.688345     0.86902    1.000000    
    234 O     c    0.124152    0.257331    0.212991     0.86902    1.000000    
    235 O     c    0.223209    0.229955    0.206123     0.86902    1.000000    
    236 O     c    0.690705    0.547422    0.502925     0.86902    1.000000    
    237 O     c    0.772638    0.554303    0.601100     0.86902    1.000000    
    238 O     c    0.539466    0.087959    0.696182     0.86902    1.000000    
    239 O     c    0.274110    0.728074    0.085293     0.86902    1.000000    
    240 O     c    0.168724    0.668622    0.002925     0.86902    1.000000    
    241 Si    c    0.790771    0.721451    0.382411     4.00000    1.000000    
    242 Si    c    0.921635    0.211463    0.227668     4.00000    1.000000    
    243 Si    c    0.146432    0.720647    0.578471     4.00000    1.000000    
    244 Si    c    0.528095    0.201427    0.078367     4.00000    1.000000    
    245 Si    c    0.712912    0.570994    0.197369     4.00000    1.000000    
    246 Si    c    0.387853    0.473971    0.690726     4.00000    1.000000    
    247 O     c    0.773790    0.700907    0.305054     0.86902    1.000000    
    248 O     c    0.744952    0.653490    0.424523     0.86902    1.000000    
    249 O     c    0.898305    0.257398    0.186485     0.86902    1.000000    
    250 O     c    0.117480    0.653982    0.624430     0.86902    1.000000    
    251 O     c    0.465390    0.154561    0.126822     0.86902    1.000000    
    252 O     c    0.653944    0.542661    0.252080     0.86902    1.000000    
    253 O     c    0.871239    0.751504    0.397164     0.86902    1.000000    
    254 O     c    0.592554    0.194135    0.099545     0.86902    1.000000    
    255 O     c    0.773204    0.555436    0.219410     0.86902    1.000000    
    256 O     c    0.772899    0.779645    0.403257     0.86902    1.000000    
    257 O     c    0.406136    0.412882    0.688345     0.86902    1.000000    
    258 O     c    0.871286    0.130898    0.212991     0.86902    1.000000    
    259 O     c    0.997719    0.229955    0.206123     0.86902    1.000000    
    260 O     c    0.147747    0.697450    0.502925     0.86902    1.000000    
    261 O     c    0.222800    0.779384    0.601100     0.86902    1.000000    
    262 O     c    0.455972    0.546212    0.696182     0.86902    1.000000    
    263 O     c    0.550501    0.280856    0.085293     0.86902    1.000000    
    264 O     c    0.504567    0.175470    0.002925     0.86902    1.000000    
    265 Si    c    0.073785    0.797517    0.382411     4.00000    1.000000    
    266 Si    c    0.714637    0.928381    0.227668     4.00000    1.000000    
    267 Si    c    0.430251    0.153178    0.578471     4.00000    1.000000    
    268 Si    c    0.331133    0.534841    0.078367     4.00000    1.000000    
    269 Si    c    0.146382    0.719658    0.197369     4.00000    1.000000    
    270 Si    c    0.918347    0.394599    0.690726     4.00000    1.000000    
    271 O     c    0.077348    0.780536    0.305054     0.86902    1.000000    
    272 O     c    0.095927    0.751698    0.424523     0.86902    1.000000    
    273 O     c    0.645373    0.905052    0.186485     0.86902    1.000000    
    274 O     c    0.467963    0.124226    0.624430     0.86902    1.000000    
    275 O     c    0.315295    0.472136    0.126822     0.86902    1.000000    
    276 O     c    0.115748    0.660690    0.252080     0.86902    1.000000    
    277 O     c    0.124199    0.877985    0.397164     0.86902    1.000000    
    278 O     c    0.402884    0.599300    0.099545     0.86902    1.000000    
    279 O     c    0.222234    0.779950    0.219410     0.86902    1.000000    
    280 O     c    0.997719    0.779645    0.403257     0.86902    1.000000    
    281 O     c    0.997719    0.412882    0.688345     0.86902    1.000000    
    282 O     c    0.744853    0.878032    0.212991     0.86902    1.000000    
    283 O     c    0.772229    0.004465    0.206123     0.86902    1.000000    
    284 O     c    0.454762    0.154493    0.502925     0.86902    1.000000    
    285 O     c    0.447881    0.229546    0.601100     0.86902    1.000000    
    286 O     c    0.914225    0.462718    0.696182     0.86902    1.000000    
    287 O     c    0.274110    0.557247    0.085293     0.86902    1.000000    
    288 O     c    0.333562    0.511313    0.002925     0.86902    1.000000    
    289 Si    c    0.073785    0.287479    0.382411     4.00000    1.000000    
    290 Si    c    0.714637    0.797467    0.227668     4.00000    1.000000    
    291 Si    c    0.430251    0.288283    0.578471     4.00000    1.000000    
    292 Si    c    0.331133    0.807503    0.078367     4.00000    1.000000    
    293 Si    c    0.146382    0.437935    0.197369     4.00000    1.000000    
    294 Si    c    0.918347    0.534959    0.690726     4.00000    1.000000    
    295 O     c    0.077348    0.308023    0.305054     0.86902    1.000000    
    296 O     c    0.095927    0.355440    0.424523     0.86902    1.000000    
    297 O     c    0.645373    0.751532    0.186485     0.86902    1.000000    
    298 O     c    0.467963    0.354948    0.624430     0.86902    1.000000    
    299 O     c    0.315295    0.854369    0.126822     0.86902    1.000000    
    300 O     c    0.115748    0.466269    0.252080     0.86902    1.000000    
    301 Si    c    0.790771    0.080531    0.382411     4.00000    1.000000    
    302 Si    c    0.921635    0.721383    0.227668     4.00000    1.000000    
    303 Si    c    0.146432    0.436997    0.578471     4.00000    1.000000    
    304 Si    c    0.528095    0.337879    0.078367     4.00000    1.000000    
    305 Si    c    0.712912    0.153128    0.197369     4.00000    1.000000    
    306 Si    c    0.387853    0.925093    0.690726     4.00000    1.000000    
    307 O     c    0.773790    0.084094    0.305054     0.86902    1.000000    
    308 O     c    0.744952    0.102673    0.424523     0.86902    1.000000    
    309 O     c    0.898305    0.652119    0.186485     0.86902    1.000000    
    310 O     c    0.117480    0.474709    0.624430     0.86902    1.000000    
    311 O     c    0.465390    0.322041    0.126822     0.86902    1.000000    
    312 O     c    0.653944    0.122494    0.252080     0.86902    1.000000    
    313 Si    c    0.714705    0.797517    0.382411     4.00000    1.000000    
    314 Si    c    0.204717    0.928381    0.227668     4.00000    1.000000    
    315 Si    c    0.713901    0.153178    0.578471     4.00000    1.000000    
    316 Si    c    0.194681    0.534841    0.078367     4.00000    1.000000    
    317 Si    c    0.564248    0.719658    0.197369     4.00000    1.000000    
    318 Si    c    0.467225    0.394599    0.690726     4.00000    1.000000    
    319 O     c    0.694161    0.780536    0.305054     0.86902    1.000000    
    320 O     c    0.646744    0.751698    0.424523     0.86902    1.000000    
    321 O     c    0.250652    0.905052    0.186485     0.86902    1.000000    
    322 O     c    0.647236    0.124226    0.624430     0.86902    1.000000    
    323 O     c    0.147815    0.472136    0.126822     0.86902    1.000000    
    324 O     c    0.535915    0.660690    0.252080     0.86902    1.000000    
    325 Si    c    0.921653    0.721451    0.382411     4.00000    1.000000    
    326 Si    c    0.280801    0.211463    0.227668     4.00000    1.000000    
    327 Si    c    0.565187    0.720647    0.578471     4.00000    1.000000    
    328 Si    c    0.664305    0.201427    0.078367     4.00000    1.000000    
    329 Si    c    0.849056    0.570994    0.197369     4.00000    1.000000    
    330 Si    c    0.077091    0.473971    0.690726     4.00000    1.000000    
    331 O     c    0.918089    0.700907    0.305054     0.86902    1.000000    
    332 O     c    0.899511    0.653490    0.424523     0.86902    1.000000    
    333 O     c    0.350065    0.257398    0.186485     0.86902    1.000000    
    334 O     c    0.527475    0.653982    0.624430     0.86902    1.000000    
    335 O     c    0.680143    0.154561    0.126822     0.86902    1.000000    
    336 O     c    0.879690    0.542661    0.252080     0.86902    1.000000    
    337 Si    c    0.204667    0.928399    0.382411     4.00000    1.000000    
    338 Si    c    0.073803    0.287547    0.227668     4.00000    1.000000    
    339 Si    c    0.849006    0.571933    0.578471     4.00000    1.000000    
    340 Si    c    0.467343    0.671051    0.078367     4.00000    1.000000    
    341 Si    c    0.282526    0.855802    0.197369     4.00000    1.000000    
    342 Si    c    0.607585    0.083837    0.690726     4.00000    1.000000    
    343 O     c    0.221648    0.924835    0.305054     0.86902    1.000000    
    344 O     c    0.250486    0.906257    0.424523     0.86902    1.000000    
    345 O     c    0.097132    0.356811    0.186485     0.86902    1.000000    
    346 O     c    0.877958    0.534221    0.624430     0.86902    1.000000    
    347 O     c    0.530048    0.686889    0.126822     0.86902    1.000000    
    348 O     c    0.341494    0.886436    0.252080     0.86902    1.000000    
    349 Si    c    0.280733    0.211413    0.382411     4.00000    1.000000    
    350 Si    c    0.790721    0.080549    0.227668     4.00000    1.000000    
    351 Si    c    0.281537    0.855752    0.578471     4.00000    1.000000    
    352 Si    c    0.800757    0.474089    0.078367     4.00000    1.000000    
    353 Si    c    0.431189    0.289272    0.197369     4.00000    1.000000    
    354 Si    c    0.528213    0.614331    0.690726     4.00000    1.000000    
    355 O     c    0.301277    0.228394    0.305054     0.86902    1.000000    
    356 O     c    0.348694    0.257232    0.424523     0.86902    1.000000    
    357 O     c    0.744786    0.103878    0.186485     0.86902    1.000000    
    358 O     c    0.348202    0.884704    0.624430     0.86902    1.000000    
    359 O     c    0.847623    0.536794    0.126822     0.86902    1.000000    
    360 O     c    0.459523    0.348240    0.252080     0.86902    1.000000    
    361 Si    c    0.714705    0.928399    0.623439     4.00000    1.000000    
    362 Si    c    0.204717    0.287547    0.778182     4.00000    1.000000    
    363 Si    c    0.713901    0.571933    0.427379     4.00000    1.000000    
    364 Si    c    0.194681    0.671051    0.927483     4.00000    1.000000    
    365 Si    c    0.564248    0.855802    0.808481     4.00000    1.000000    
    366 Si    c    0.467225    0.083837    0.315124     4.00000    1.000000    
    367 O     c    0.694161    0.924835    0.700796     0.86902    1.000000    
    368 O     c    0.646744    0.906257    0.581327     0.86902    1.000000    
    369 O     c    0.250652    0.356811    0.819365     0.86902    1.000000    
    370 O     c    0.647236    0.534221    0.381420     0.86902    1.000000    
    371 O     c    0.147815    0.686889    0.879028     0.86902    1.000000    
    372 O     c    0.535915    0.886436    0.753770     0.86902    1.000000    
    373 Si    c    0.790771    0.721451    0.623439     4.00000    1.000000    
    374 Si    c    0.921635    0.211463    0.778182     4.00000    1.000000    
    375 Si    c    0.146432    0.720647    0.427379     4.00000    1.000000    
    376 Si    c    0.528095    0.201427    0.927483     4.00000    1.000000    
    377 Si    c    0.712912    0.570994    0.808481     4.00000    1.000000    
    378 Si    c    0.387853    0.473971    0.315124     4.00000    1.000000    
    379 O     c    0.773790    0.700907    0.700796     0.86902    1.000000    
    380 O     c    0.744952    0.653490    0.581327     0.86902    1.000000    
    381 O     c    0.898305    0.257398    0.819365     0.86902    1.000000    
    382 O     c    0.117480    0.653982    0.381420     0.86902    1.000000    
    383 O     c    0.465390    0.154561    0.879028     0.86902    1.000000    
    384 O     c    0.653944    0.542661    0.753770     0.86902    1.000000    
    385 Si    c    0.073785    0.797517    0.623439     4.00000    1.000000    
    386 Si    c    0.714637    0.928381    0.778182     4.00000    1.000000    
    387 Si    c    0.430251    0.153178    0.427379     4.00000    1.000000    
    388 Si    c    0.331133    0.534841    0.927483     4.00000    1.000000    
    389 Si    c    0.146382    0.719658    0.808481     4.00000    1.000000    
    390 Si    c    0.918347    0.394599    0.315124     4.00000    1.000000    
    391 O     c    0.077348    0.780536    0.700796     0.86902    1.000000    
    392 O     c    0.095927    0.751698    0.581327     0.86902    1.000000    
    393 O     c    0.645373    0.905052    0.819365     0.86902    1.000000    
    394 O     c    0.467963    0.124226    0.381420     0.86902    1.000000    
    395 O     c    0.315295    0.472136    0.879028     0.86902    1.000000    
    396 O     c    0.115748    0.660690    0.753770     0.86902    1.000000    
    397 Si    c    0.280733    0.080531    0.623439     4.00000    1.000000    
    398 Si    c    0.790721    0.721383    0.778182     4.00000    1.000000    
    399 Si    c    0.281537    0.436997    0.427379     4.00000    1.000000    
    400 Si    c    0.800757    0.337879    0.927483     4.00000    1.000000    
    401 Si    c    0.431189    0.153128    0.808481     4.00000    1.000000    
    402 Si    c    0.528213    0.925093    0.315124     4.00000    1.000000    
    403 O     c    0.301277    0.084094    0.700796     0.86902    1.000000    
    404 O     c    0.348694    0.102673    0.581327     0.86902    1.000000    
    405 O     c    0.744786    0.652119    0.819365     0.86902    1.000000    
    406 O     c    0.348202    0.474709    0.381420     0.86902    1.000000    
    407 O     c    0.847623    0.322041    0.879028     0.86902    1.000000    
    408 O     c    0.459523    0.122494    0.753770     0.86902    1.000000    
    409 Si    c    0.204667    0.287479    0.623439     4.00000    1.000000    
    410 Si    c    0.073803    0.797467    0.778182     4.00000    1.000000    
    411 Si    c    0.849006    0.288283    0.427379     4.00000    1.000000    
    412 Si    c    0.467343    0.807503    0.927483     4.00000    1.000000    
    413 Si    c    0.282526    0.437935    0.808481     4.00000    1.000000    
    414 Si    c    0.607585    0.534959    0.315124     4.00000    1.000000    
    415 O     c    0.221648    0.308023    0.700796     0.86902    1.000000    
    416 O     c    0.250486    0.355440    0.581327     0.86902    1.000000    
    417 O     c    0.097133    0.751532    0.819365     0.86902    1.000000    
    418 O     c    0.877958    0.354948    0.381420     0.86902    1.000000    
    419 O     c    0.530048    0.854369    0.879028     0.86902    1.000000    
    420 O     c    0.341494    0.466269    0.753770     0.86902    1.000000    
    421 Si    c    0.921653    0.211413    0.623439     4.00000    1.000000    
    422 Si    c    0.280801    0.080549    0.778182     4.00000    1.000000    
    423 Si    c    0.565187    0.855752    0.427379     4.00000    1.000000    
    424 Si    c    0.664305    0.474089    0.927483     4.00000    1.000000    
    425 Si    c    0.849056    0.289272    0.808481     4.00000    1.000000    
    426 Si    c    0.077091    0.614331    0.315124     4.00000    1.000000    
    427 O     c    0.918089    0.228394    0.700796     0.86902    1.000000    
    428 O     c    0.899511    0.257232    0.581327     0.86902    1.000000    
    429 O     c    0.350065    0.103878    0.819365     0.86902    1.000000    
    430 O     c    0.527475    0.884704    0.381420     0.86902    1.000000    
    431 O     c    0.680143    0.536794    0.879028     0.86902    1.000000    
    432 O     c    0.879690    0.348240    0.753770     0.86902    1.000000    
    433 O     s    0.918089 *  0.700907 *  0.700796 *  -2.86902    1.000000    
    434 O     s    0.899511 *  0.653490 *  0.581327 *  -2.86902    1.000000    
    435 O     s    0.350065 *  0.257398 *  0.819365 *  -2.86902    1.000000    
    436 O     s    0.527475 *  0.653982 *  0.381420 *  -2.86902    1.000000    
    437 O     s    0.680143 *  0.154561 *  0.879028 *  -2.86902    1.000000    
    438 O     s    0.879690 *  0.542661 *  0.753770 *  -2.86902    1.000000    
    439 O     s    0.871239 *  0.751504 *  0.608686 *  -2.86902    1.000000    
    440 O     s    0.592554 *  0.194135 *  0.906305 *  -2.86902    1.000000    
    441 O     s    0.773204 *  0.555436 *  0.786440 *  -2.86902    1.000000    
    442 O     s    0.997719 *  0.779645 *  0.602593 *  -2.86902    1.000000    
    443 O     s    0.997719 *  0.412882 *  0.317505 *  -2.86902    1.000000    
    444 O     s    0.250585 *  0.130898 *  0.792859 *  -2.86902    1.000000    
    445 O     s    0.223209 *  0.229955 *  0.799727 *  -2.86902    1.000000    
    446 O     s    0.540676 *  0.697450 *  0.502925 *  -2.86902    1.000000    
    447 O     s    0.547557 *  0.779384 *  0.404750 *  -2.86902    1.000000    
    448 O     s    0.081213 *  0.546212 *  0.309668 *  -2.86902    1.000000    
    449 O     s    0.721328 *  0.280856 *  0.920557 *  -2.86902    1.000000    
    450 O     s    0.661876 *  0.175470 *  0.002925 *  -2.86902    1.000000    
    451 O     s    0.221648 *  0.924835 *  0.700796 *  -2.86902    1.000000    
    452 O     s    0.250486 *  0.906257 *  0.581327 *  -2.86902    1.000000    
    453 O     s    0.097132 *  0.356811 *  0.819365 *  -2.86902    1.000000    
    454 O     s    0.877958 *  0.534221 *  0.381420 *  -2.86902    1.000000    
    455 O     s    0.530048 *  0.686889 *  0.879028 *  -2.86902    1.000000    
    456 O     s    0.341494 *  0.886436 *  0.753770 *  -2.86902    1.000000    
    457 O     s    0.124199 *  0.877985 *  0.608686 *  -2.86902    1.000000    
    458 O     s    0.402884 *  0.599300 *  0.906305 *  -2.86902    1.000000    
    459 O     s    0.222234 *  0.779950 *  0.786440 *  -2.86902    1.000000    
    460 O     s    0.222539 *  0.004465 *  0.602593 *  -2.86902    1.000000    
    461 O     s    0.589302 *  0.004465 *  0.317505 *  -2.86902    1.000000    
    462 O     s    0.124152 *  0.257331 *  0.792859 *  -2.86902    1.000000    
    463 O     s    0.997719 *  0.229955 *  0.799727 *  -2.86902    1.000000    
    464 O     s    0.847691 *  0.547422 *  0.502925 *  -2.86902    1.000000    
    465 O     s    0.772638 *  0.554303 *  0.404750 *  -2.86902    1.000000    
    466 O     s    0.539466 *  0.087959 *  0.309668 *  -2.86902    1.000000    
    467 O     s    0.444937 *  0.728074 *  0.920557 *  -2.86902    1.000000    
    468 O     s    0.490871 *  0.668622 *  0.002925 *  -2.86902    1.000000    
    469 O     s    0.301277 *  0.228394 *  0.700796 *  -2.86902    1.000000    
    470 O     s    0.348694 *  0.257232 *  0.581327 *  -2.86902    1.000000    
    471 O     s    0.744786 *  0.103878 *  0.819365 *  -2.86902    1.000000    
    472 O     s    0.348202 *  0.884704 *  0.381420 *  -2.86902    1.000000    
    473 O     s    0.847623 *  0.536794 *  0.879028 *  -2.86902    1.000000    
    474 O     s    0.459523 *  0.348240 *  0.753770 *  -2.86902    1.000000    
    475 O     s    0.250680 *  0.130945 *  0.608686 *  -2.86902    1.000000    
    476 O     s    0.808049 *  0.409630 *  0.906305 *  -2.86902    1.000000    
    477 O     s    0.446748 *  0.228980 *  0.786440 *  -2.86902    1.000000    
    478 O     s    0.222539 *  0.229285 *  0.602593 *  -2.86902    1.000000    
    479 O     s    0.589302 *  0.596048 *  0.317505 *  -2.86902    1.000000    
    480 O     s    0.871286 *  0.130898 *  0.792859 *  -2.86902    1.000000    
    481 O     s    0.772229 *  0.004465 *  0.799727 *  -2.86902    1.000000    
    482 O     s    0.304734 *  0.854437 *  0.502925 *  -2.86902    1.000000    
    483 O     s    0.222800 *  0.779384 *  0.404750 *  -2.86902    1.000000    
    484 O     s    0.455972 *  0.546212 *  0.309668 *  -2.86902    1.000000    
    485 O     s    0.721328 *  0.451683 *  0.920557 *  -2.86902    1.000000    
    486 O     s    0.826714 *  0.497617 *  0.002925 *  -2.86902    1.000000    
    487 O     s    0.077348 *  0.308023 *  0.700796 *  -2.86902    1.000000    
    488 O     s    0.095927 *  0.355440 *  0.581327 *  -2.86902    1.000000    
    489 O     s    0.645373 *  0.751532 *  0.819365 *  -2.86902    1.000000    
    490 O     s    0.467963 *  0.354948 *  0.381420 *  -2.86902    1.000000    
    491 O     s    0.315295 *  0.854369 *  0.879028 *  -2.86902    1.000000    
    492 O     s    0.115748 *  0.466269 *  0.753770 *  -2.86902    1.000000    
    493 O     s    0.124199 *  0.257426 *  0.608686 *  -2.86902    1.000000    
    494 O     s    0.402884 *  0.814795 *  0.906305 *  -2.86902    1.000000    
    495 O     s    0.222234 *  0.453494 *  0.786440 *  -2.86902    1.000000    
    496 O     s    0.997719 *  0.229285 *  0.602593 *  -2.86902    1.000000    
    497 O     s    0.997719 *  0.596048 *  0.317505 *  -2.86902    1.000000    
    498 O     s    0.744853 *  0.878032 *  0.792859 *  -2.86902    1.000000    
    499 O     s    0.772229 *  0.778975 *  0.799727 *  -2.86902    1.000000    
    500 O     s    0.454762 *  0.311480 *  0.502925 *  -2.86902    1.000000    
    501 O     s    0.447881 *  0.229546 *  0.404750 *  -2.86902    1.000000    
    502 O     s    0.914225 *  0.462718 *  0.309668 *  -2.86902    1.000000    
    503 O     s    0.274110 *  0.728074 *  0.920557 *  -2.86902    1.000000    
    504 O     s    0.333562 *  0.833460 *  0.002925 *  -2.86902    1.000000    
    505 O     s    0.773790 *  0.084094 *  0.700796 *  -2.86902    1.000000    
    506 O     s    0.744952 *  0.102673 *  0.581327 *  -2.86902    1.000000    
    507 O     s    0.898305 *  0.652119 *  0.819365 *  -2.86902    1.000000    
    508 O     s    0.117480 *  0.474709 *  0.381420 *  -2.86902    1.000000    
    509 O     s    0.465390 *  0.322041 *  0.879028 *  -2.86902    1.000000    
    510 O     s    0.653944 *  0.122494 *  0.753770 *  -2.86902    1.000000    
    511 O     s    0.871239 *  0.130945 *  0.608686 *  -2.86902    1.000000    
    512 O     s    0.592554 *  0.409630 *  0.906305 *  -2.86902    1.000000    
    513 O     s    0.773204 *  0.228980 *  0.786440 *  -2.86902    1.000000    
    514 O     s    0.772899 *  0.004465 *  0.602593 *  -2.86902    1.000000    
    515 O     s    0.406136 *  0.004465 *  0.317505 *  -2.86902    1.000000    
    516 O     s    0.871286 *  0.751599 *  0.792859 *  -2.86902    1.000000    
    517 O     s    0.997719 *  0.778975 *  0.799727 *  -2.86902    1.000000    
    518 O     s    0.147747 *  0.461508 *  0.502925 *  -2.86902    1.000000    
    519 O     s    0.222800 *  0.454627 *  0.404750 *  -2.86902    1.000000    
    520 O     s    0.455972 *  0.920971 *  0.309668 *  -2.86902    1.000000    
    521 O     s    0.550501 *  0.280856 *  0.920557 *  -2.86902    1.000000    
    522 O     s    0.504567 *  0.340308 *  0.002925 *  -2.86902    1.000000    
    523 O     s    0.694161 *  0.780536 *  0.700796 *  -2.86902    1.000000    
    524 O     s    0.646744 *  0.751698 *  0.581327 *  -2.86902    1.000000    
    525 O     s    0.250652 *  0.905052 *  0.819365 *  -2.86902    1.000000    
    526 O     s    0.647236 *  0.124226 *  0.381420 *  -2.86902    1.000000    
    527 O     s    0.147815 *  0.472136 *  0.879028 *  -2.86902    1.000000    
    528 O     s    0.535915 *  0.660690 *  0.753770 *  -2.86902    1.000000    
    529 O     s    0.744758 *  0.877985 *  0.608686 *  -2.86902    1.000000    
    530 O     s    0.187389 *  0.599300 *  0.906305 *  -2.86902    1.000000    
    531 O     s    0.548690 *  0.779950 *  0.786440 *  -2.86902    1.000000    
    532 O     s    0.772899 *  0.779645 *  0.602593 *  -2.86902    1.000000    
    533 O     s    0.406136 *  0.412882 *  0.317505 *  -2.86902    1.000000    
    534 O     s    0.124152 *  0.878032 *  0.792859 *  -2.86902    1.000000    
    535 O     s    0.223209 *  0.004465 *  0.799727 *  -2.86902    1.000000    
    536 O     s    0.690704 *  0.154493 *  0.502925 *  -2.86902    1.000000    
    537 O     s    0.772638 *  0.229546 *  0.404750 *  -2.86902    1.000000    
    538 O     s    0.539466 *  0.462718 *  0.309668 *  -2.86902    1.000000    
    539 O     s    0.274110 *  0.557247 *  0.920557 *  -2.86902    1.000000    
    540 O     s    0.168724 *  0.511313 *  0.002925 *  -2.86902    1.000000    
    541 O     s    0.301277 *  0.084094 *  0.305054 *  -2.86902    1.000000    
    542 O     s    0.348694 *  0.102673 *  0.424523 *  -2.86902    1.000000    
    543 O     s    0.744786 *  0.652119 *  0.186485 *  -2.86902    1.000000    
    544 O     s    0.348202 *  0.474709 *  0.624430 *  -2.86902    1.000000    
    545 O     s    0.847623 *  0.322041 *  0.126822 *  -2.86902    1.000000    
    546 O     s    0.459523 *  0.122494 *  0.252080 *  -2.86902    1.000000    
    547 O     s    0.250680 *  0.130945 *  0.397164 *  -2.86902    1.000000    
    548 O     s    0.808049 *  0.409630 *  0.099545 *  -2.86902    1.000000    
    549 O     s    0.446748 *  0.228980 *  0.219410 *  -2.86902    1.000000    
    550 O     s    0.222539 *  0.004465 *  0.403257 *  -2.86902    1.000000    
    551 O     s    0.589302 *  0.004465 *  0.688345 *  -2.86902    1.000000    
    552 O     s    0.871286 *  0.751599 *  0.212991 *  -2.86902    1.000000    
    553 O     s    0.772229 *  0.778975 *  0.206123 *  -2.86902    1.000000    
    554 O     s    0.304733 *  0.461508 *  0.502925 *  -2.86902    1.000000    
    555 O     s    0.222800 *  0.454627 *  0.601100 *  -2.86902    1.000000    
    556 O     s    0.455972 *  0.920971 *  0.696182 *  -2.86902    1.000000    
    557 O     s    0.721328 *  0.280856 *  0.085293 *  -2.86902    1.000000    
    558 O     s    0.826714 *  0.340308 *  0.002925 *  -2.86902    1.000000    
    559 O     s    0.221648 *  0.308023 *  0.305054 *  -2.86902    1.000000    
    560 O     s    0.250486 *  0.355440 *  0.424523 *  -2.86902    1.000000    
    561 O     s    0.097133 *  0.751532 *  0.186485 *  -2.86902    1.000000    
    562 O     s    0.877958 *  0.354948 *  0.624430 *  -2.86902    1.000000    
    563 O     s    0.530048 *  0.854369 *  0.126822 *  -2.86902    1.000000    
    564 O     s    0.341494 *  0.466269 *  0.252080 *  -2.86902    1.000000    
    565 O     s    0.124199 *  0.257426 *  0.397164 *  -2.86902    1.000000    
    566 O     s    0.402884 *  0.814795 *  0.099545 *  -2.86902    1.000000    
    567 O     s    0.222234 *  0.453494 *  0.219410 *  -2.86902    1.000000    
    568 O     s    0.222539 *  0.229285 *  0.403257 *  -2.86902    1.000000    
    569 O     s    0.589302 *  0.596048 *  0.688345 *  -2.86902    1.000000    
    570 O     s    0.124152 *  0.878032 *  0.212991 *  -2.86902    1.000000    
    571 O     s    0.997719 *  0.778975 *  0.206123 *  -2.86902    1.000000    
    572 O     s    0.847691 *  0.311480 *  0.502925 *  -2.86902    1.000000    
    573 O     s    0.772638 *  0.229546 *  0.601100 *  -2.86902    1.000000    
    574 O     s    0.539466 *  0.462718 *  0.696182 *  -2.86902    1.000000    
    575 O     s    0.444937 *  0.728074 *  0.085293 *  -2.86902    1.000000    
    576 O     s    0.490871 *  0.833460 *  0.002925 *  -2.86902    1.000000    
    577 O     s    0.918089 *  0.228394 *  0.305054 *  -2.86902    1.000000    
    578 O     s    0.899511 *  0.257232 *  0.424523 *  -2.86902    1.000000    
    579 O     s    0.350065 *  0.103878 *  0.186485 *  -2.86902    1.000000    
    580 O     s    0.527475 *  0.884704 *  0.624430 *  -2.86902    1.000000    
    581 O     s    0.680143 *  0.536794 *  0.126822 *  -2.86902    1.000000    
    582 O     s    0.879690 *  0.348240 *  0.252080 *  -2.86902    1.000000    
    583 O     s    0.871239 *  0.130945 *  0.397164 *  -2.86902    1.000000    
    584 O     s    0.592554 *  0.409630 *  0.099545 *  -2.86902    1.000000    
    585 O     s    0.773204 *  0.228980 *  0.219410 *  -2.86902    1.000000    
    586 O     s    0.997719 *  0.229285 *  0.403257 *  -2.86902    1.000000    
    587 O     s    0.997719 *  0.596048 *  0.688345 *  -2.86902    1.000000    
    588 O     s    0.250585 *  0.130898 *  0.212991 *  -2.86902    1.000000    
    589 O     s    0.223209 *  0.004465 *  0.206123 *  -2.86902    1.000000    
    590 O     s    0.540676 *  0.854437 *  0.502925 *  -2.86902    1.000000    
    591 O     s    0.547557 *  0.779384 *  0.601100 *  -2.86902    1.000000    
    592 O     s    0.081213 *  0.546212 *  0.696182 *  -2.86902    1.000000    
    593 O     s    0.721328 *  0.451683 *  0.085293 *  -2.86902    1.000000    
    594 O     s    0.661876 *  0.497617 *  0.002925 *  -2.86902    1.000000    
    595 O     s    0.694161 *  0.924835 *  0.305054 *  -2.86902    1.000000    
    596 O     s    0.646744 *  0.906257 *  0.424523 *  -2.86902    1.000000    
    597 O     s    0.250652 *  0.356811 *  0.186485 *  -2.86902    1.000000    
    598 O     s    0.647236 *  0.534221 *  0.624430 *  -2.86902    1.000000    
    599 O     s    0.147815 *  0.686889 *  0.126822 *  -2.86902    1.000000    
    600 O     s    0.535915 *  0.886436 *  0.252080 *  -2.86902    1.000000    
    601 O     s    0.744758 *  0.877985 *  0.397164 *  -2.86902    1.000000    
    602 O     s    0.187389 *  0.599300 *  0.099545 *  -2.86902    1.000000    
    603 O     s    0.548690 *  0.779950 *  0.219410 *  -2.86902    1.000000    
    604 O     s    0.772899 *  0.004465 *  0.403257 *  -2.86902    1.000000    
    605 O     s    0.406136 *  0.004465 *  0.688345 *  -2.86902    1.000000    
    606 O     s    0.124152 *  0.257331 *  0.212991 *  -2.86902    1.000000    
    607 O     s    0.223209 *  0.229955 *  0.206123 *  -2.86902    1.000000    
    608 O     s    0.690705 *  0.547422 *  0.502925 *  -2.86902    1.000000    
    609 O     s    0.772638 *  0.554303 *  0.601100 *  -2.86902    1.000000    
    610 O     s    0.539466 *  0.087959 *  0.696182 *  -2.86902    1.000000    
    611 O     s    0.274110 *  0.728074 *  0.085293 *  -2.86902    1.000000    
    612 O     s    0.168724 *  0.668622 *  0.002925 *  -2.86902    1.000000    
    613 O     s    0.773790 *  0.700907 *  0.305054 *  -2.86902    1.000000    
    614 O     s    0.744952 *  0.653490 *  0.424523 *  -2.86902    1.000000    
    615 O     s    0.898305 *  0.257398 *  0.186485 *  -2.86902    1.000000    
    616 O     s    0.117480 *  0.653982 *  0.624430 *  -2.86902    1.000000    
    617 O     s    0.465390 *  0.154561 *  0.126822 *  -2.86902    1.000000    
    618 O     s    0.653944 *  0.542661 *  0.252080 *  -2.86902    1.000000    
    619 O     s    0.871239 *  0.751504 *  0.397164 *  -2.86902    1.000000    
    620 O     s    0.592554 *  0.194135 *  0.099545 *  -2.86902    1.000000    
    621 O     s    0.773204 *  0.555436 *  0.219410 *  -2.86902    1.000000    
    622 O     s    0.772899 *  0.779645 *  0.403257 *  -2.86902    1.000000    
    623 O     s    0.406136 *  0.412882 *  0.688345 *  -2.86902    1.000000    
    624 O     s    0.871286 *  0.130898 *  0.212991 *  -2.86902    1.000000    
    625 O     s    0.997719 *  0.229955 *  0.206123 *  -2.86902    1.000000    
    626 O     s    0.147747 *  0.697450 *  0.502925 *  -2.86902    1.000000    
    627 O     s    0.222800 *  0.779384 *  0.601100 *  -2.86902    1.000000    
    628 O     s    0.455972 *  0.546212 *  0.696182 *  -2.86902    1.000000    
    629 O     s    0.550501 *  0.280856 *  0.085293 *  -2.86902    1.000000    
    630 O     s    0.504567 *  0.175470 *  0.002925 *  -2.86902    1.000000    
    631 O     s    0.077348 *  0.780536 *  0.305054 *  -2.86902    1.000000    
    632 O     s    0.095927 *  0.751698 *  0.424523 *  -2.86902    1.000000    
    633 O     s    0.645373 *  0.905052 *  0.186485 *  -2.86902    1.000000    
    634 O     s    0.467963 *  0.124226 *  0.624430 *  -2.86902    1.000000    
    635 O     s    0.315295 *  0.472136 *  0.126822 *  -2.86902    1.000000    
    636 O     s    0.115748 *  0.660690 *  0.252080 *  -2.86902    1.000000    
    637 O     s    0.124199 *  0.877985 *  0.397164 *  -2.86902    1.000000    
    638 O     s    0.402884 *  0.599300 *  0.099545 *  -2.86902    1.000000    
    639 O     s    0.222234 *  0.779950 *  0.219410 *  -2.86902    1.000000    
    640 O     s    0.997719 *  0.779645 *  0.403257 *  -2.86902    1.000000    
    641 O     s    0.997719 *  0.412882 *  0.688345 *  -2.86902    1.000000    
    642 O     s    0.744853 *  0.878032 *  0.212991 *  -2.86902    1.000000    
    643 O     s    0.772229 *  0.004465 *  0.206123 *  -2.86902    1.000000    
    644 O     s    0.454762 *  0.154493 *  0.502925 *  -2.86902    1.000000    
    645 O     s    0.447881 *  0.229546 *  0.601100 *  -2.86902    1.000000    
    646 O     s    0.914225 *  0.462718 *  0.696182 *  -2.86902    1.000000    
    647 O     s    0.274110 *  0.557247 *  0.085293 *  -2.86902    1.000000    
    648 O     s    0.333562 *  0.511313 *  0.002925 *  -2.86902    1.000000    
    649 O     s    0.077348 *  0.308023 *  0.305054 *  -2.86902    1.000000    
    650 O     s    0.095927 *  0.355440 *  0.424523 *  -2.86902    1.000000    
    651 O     s    0.645373 *  0.751532 *  0.186485 *  -2.86902    1.000000    
    652 O     s    0.467963 *  0.354948 *  0.624430 *  -2.86902    1.000000    
    653 O     s    0.315295 *  0.854369 *  0.126822 *  -2.86902    1.000000    
    654 O     s    0.115748 *  0.466269 *  0.252080 *  -2.86902    1.000000    
    655 O     s    0.773790 *  0.084094 *  0.305054 *  -2.86902    1.000000    
    656 O     s    0.744952 *  0.102673 *  0.424523 *  -2.86902    1.000000    
    657 O     s    0.898305 *  0.652119 *  0.186485 *  -2.86902    1.000000    
    658 O     s    0.117480 *  0.474709 *  0.624430 *  -2.86902    1.000000    
    659 O     s    0.465390 *  0.322041 *  0.126822 *  -2.86902    1.000000    
    660 O     s    0.653944 *  0.122494 *  0.252080 *  -2.86902    1.000000    
    661 O     s    0.694161 *  0.780536 *  0.305054 *  -2.86902    1.000000    
    662 O     s    0.646744 *  0.751698 *  0.424523 *  -2.86902    1.000000    
    663 O     s    0.250652 *  0.905052 *  0.186485 *  -2.86902    1.000000    
    664 O     s    0.647236 *  0.124226 *  0.624430 *  -2.86902    1.000000    
    665 O     s    0.147815 *  0.472136 *  0.126822 *  -2.86902    1.000000    
    666 O     s    0.535915 *  0.660690 *  0.252080 *  -2.86902    1.000000    
    667 O     s    0.918089 *  0.700907 *  0.305054 *  -2.86902    1.000000    
    668 O     s    0.899511 *  0.653490 *  0.424523 *  -2.86902    1.000000    
    669 O     s    0.350065 *  0.257398 *  0.186485 *  -2.86902    1.000000    
    670 O     s    0.527475 *  0.653982 *  0.624430 *  -2.86902    1.000000    
    671 O     s    0.680143 *  0.154561 *  0.126822 *  -2.86902    1.000000    
    672 O     s    0.879690 *  0.542661 *  0.252080 *  -2.86902    1.000000    
    673 O     s    0.221648 *  0.924835 *  0.305054 *  -2.86902    1.000000    
    674 O     s    0.250486 *  0.906257 *  0.424523 *  -2.86902    1.000000    
    675 O     s    0.097132 *  0.356811 *  0.186485 *  -2.86902    1.000000    
    676 O     s    0.877958 *  0.534221 *  0.624430 *  -2.86902    1.000000    
    677 O     s    0.530048 *  0.686889 *  0.126822 *  -2.86902    1.000000    
    678 O     s    0.341494 *  0.886436 *  0.252080 *  -2.86902    1.000000    
    679 O     s    0.301277 *  0.228394 *  0.305054 *  -2.86902    1.000000    
    680 O     s    0.348694 *  0.257232 *  0.424523 *  -2.86902    1.000000    
    681 O     s    0.744786 *  0.103878 *  0.186485 *  -2.86902    1.000000    
    682 O     s    0.348202 *  0.884704 *  0.624430 *  -2.86902    1.000000    
    683 O     s    0.847623 *  0.536794 *  0.126822 *  -2.86902    1.000000    
    684 O     s    0.459523 *  0.348240 *  0.252080 *  -2.86902    1.000000    
    685 O     s    0.694161 *  0.924835 *  0.700796 *  -2.86902    1.000000    
    686 O     s    0.646744 *  0.906257 *  0.581327 *  -2.86902    1.000000    
    687 O     s    0.250652 *  0.356811 *  0.819365 *  -2.86902    1.000000    
    688 O     s    0.647236 *  0.534221 *  0.381420 *  -2.86902    1.000000    
    689 O     s    0.147815 *  0.686889 *  0.879028 *  -2.86902    1.000000    
    690 O     s    0.535915 *  0.886436 *  0.753770 *  -2.86902    1.000000    
    691 O     s    0.773790 *  0.700907 *  0.700796 *  -2.86902    1.000000    
    692 O     s    0.744952 *  0.653490 *  0.581327 *  -2.86902    1.000000    
    693 O     s    0.898305 *  0.257398 *  0.819365 *  -2.86902    1.000000    
    694 O     s    0.117480 *  0.653982 *  0.381420 *  -2.86902    1.000000    
    695 O     s    0.465390 *  0.154561 *  0.879028 *  -2.86902    1.000000    
    696 O     s    0.653944 *  0.542661 *  0.753770 *  -2.86902    1.000000    
    697 O     s    0.077348 *  0.780536 *  0.700796 *  -2.86902    1.000000    
    698 O     s    0.095927 *  0.751698 *  0.581327 *  -2.86902    1.000000    
    699 O     s    0.645373 *  0.905052 *  0.819365 *  -2.86902    1.000000    
    700 O     s    0.467963 *  0.124226 *  0.381420 *  -2.86902    1.000000    
    701 O     s    0.315295 *  0.472136 *  0.879028 *  -2.86902    1.000000    
    702 O     s    0.115748 *  0.660690 *  0.753770 *  -2.86902    1.000000    
    703 O     s    0.301277 *  0.084094 *  0.700796 *  -2.86902    1.000000    
    704 O     s    0.348694 *  0.102673 *  0.581327 *  -2.86902    1.000000    
    705 O     s    0.744786 *  0.652119 *  0.819365 *  -2.86902    1.000000    
    706 O     s    0.348202 *  0.474709 *  0.381420 *  -2.86902    1.000000    
    707 O     s    0.847623 *  0.322041 *  0.879028 *  -2.86902    1.000000    
    708 O     s    0.459523 *  0.122494 *  0.753770 *  -2.86902    1.000000    
    709 O     s    0.221648 *  0.308023 *  0.700796 *  -2.86902    1.000000    
    710 O     s    0.250486 *  0.355440 *  0.581327 *  -2.86902    1.000000    
    711 O     s    0.097133 *  0.751532 *  0.819365 *  -2.86902    1.000000    
    712 O     s    0.877958 *  0.354948 *  0.381420 *  -2.86902    1.000000    
    713 O     s    0.530048 *  0.854369 *  0.879028 *  -2.86902    1.000000    
    714 O     s    0.341494 *  0.466269 *  0.753770 *  -2.86902    1.000000    
    715 O     s    0.918089 *  0.228394 *  0.700796 *  -2.86902    1.000000    
    716 O     s    0.899511 *  0.257232 *  0.581327 *  -2.86902    1.000000    
    717 O     s    0.350065 *  0.103878 *  0.819365 *  -2.86902    1.000000    
    718 O     s    0.527475 *  0.884704 *  0.381420 *  -2.86902    1.000000    
    719 O     s    0.680143 *  0.536794 *  0.879028 *  -2.86902    1.000000    
    720 O     s    0.879690 *  0.348240 *  0.753770 *  -2.86902    1.000000    
--------------------------------------------------------------------------------



********************************************************************************
*  General input information                                                   *
********************************************************************************

  Species output for all configurations : 

--------------------------------------------------------------------------------
  Species    Type    Atomic    Atomic    Charge       Radii (Angs)     Library
                     Number     Mass       (e)     Cova   Ionic  VDW   Symbol
--------------------------------------------------------------------------------
    O        Core        8      16.00   0.869020   0.730  0.000  1.360 O        
    O        Shell       8       0.00  -2.869020   0.730  0.000  0.000 O        
    Si       Core       14      28.09   4.000000   1.200  0.000  2.100 Si       
--------------------------------------------------------------------------------


  Lattice summation method               =    Ewald          (3-D)
                                         =    Parry          (2-D)
                                         =    Saunders et al (1-D)
  Accuracy factor for lattice sums       =   12.000


  Analytic derivatives to be used

  Time limit = Infinity

  Maximum range for interatomic potentials =    100000.000000 Angstroms

  General interatomic potentials :

--------------------------------------------------------------------------------
Atom  Types   Potential      Parameter       Value         Units   Cutoffs(Ang)
  1     2                                                            Min /  Max 
--------------------------------------------------------------------------------
Si   c O    s Buckingham    Buckingham A     1283.9070    eV        0.000 10.000
                            Buckingham rho  0.32052000    Ang       
                            Buckingham C     10.661580    eV*Ang^6  
--------------------------------------------------------------------------------
O    s O    s Buckingham    Buckingham A     22764.000    eV        0.000 12.000
                            Buckingham rho  0.14900000    Ang       
                            Buckingham C     27.879000    eV*Ang^6  
--------------------------------------------------------------------------------
O    c O    s Spring (c-s)  Spring k 2       74.920000    eV*Ang^-2 0.000  1.100
                            Spring k 4       0.0000000    eV*Ang^-4 
--------------------------------------------------------------------------------

  General Three-body potentials :

--------------------------------------------------------------------------------
  Atoms       Potential      Parameter       Value         Units   Cutoffs(Ang)
  1 / 2 / 3                                                          Min /  Max 
--------------------------------------------------------------------------------
Si    core    Harmonic      Three-body cnst  2.0972400    eV*rad^-2 0.000  1.900
O     shel                  Three-body angl  109.47000    degrees   0.000  1.900
O     shel                  Three-body k4    0.0000000    eV*rad^-4 0.000  3.500
                            Three-body k3    0.0000000    eV*rad^-3 
--------------------------------------------------------------------------------
Si    core    Harmonic      Three-body cnst  2.0972400    eV*rad^-2 0.000  1.900
O     shel                  Three-body angl  109.47000    degrees   0.000  1.900
(    shel                  Three-body k4    0.0000000    eV*rad^-4 0.000  3.500
                            Three-body k3    0.0000000    eV*rad^-3 
--------------------------------------------------------------------------------
Si    core    Harmonic      Three-body cnst  2.0972400    eV*rad^-2 0.000  1.900
(    shel                  Three-body angl  109.47000    degrees   0.000  1.900
(    shel                  Three-body k4    0.0000000    eV*rad^-4 0.000  3.500
                            Three-body k3    0.0000000    eV*rad^-3 
--------------------------------------------------------------------------------

********************************************************************************
*  Output for configuration   1 : ReferenceDataBase/8328529_111                *
********************************************************************************


  Components of energy : 

--------------------------------------------------------------------------------
  Interatomic potentials     =        4490.63168626 eV    
  Three-body potentials      =           0.88373352 eV    
  Monopole - monopole (real) =      -18587.69690532 eV    
  Monopole - monopole (recip)=       -4165.83860573 eV    
  Monopole - monopole (total)=      -22753.53551105 eV    
--------------------------------------------------------------------------------
  Total lattice energy       =      -18262.02009127 eV    
--------------------------------------------------------------------------------
  Total lattice energy       =        -1762005.7783 kJ/(mole unit cells)
--------------------------------------------------------------------------------


  Number of variables =      864

  Maximum number of calculations  =           500
  Maximum Hessian update interval =            10
  Maximum step size               =   0.100000000
  Maximum parameter tolerance     =   0.000010000
  Maximum function  tolerance     =   0.000010000
  Maximum gradient  tolerance     =   0.001000000
  Maximum gradient  component     =   0.010000000

  Newton-Raphson optimiser to be used

  BFGS hessian update to be used

  Lower half triangular hessian to be used

  Minimiser to switch to RFO
  When gradient norm is less than     0.080000

  Switch max step size to       0.30000000 when gnorm is less than     0.005000

  Shell only optimisation

  Dumpfile to be written after every cycle

  Start of bulk optimisation :

  Cycle:      0 Energy:    -18262.020091  Gnorm:      6.605939  CPU:    7.515
  ** Hessian calculated **
  Cycle:      1 Energy:    -18468.487496  Gnorm:      2.533028  CPU:   15.013
  ** Hessian calculated **
  Cycle:      2 Energy:    -18502.644254  Gnorm:      0.504286  CPU:   28.515
  ** Hessian calculated **
  Cycle:      3 Energy:    -18503.708223  Gnorm:      0.252144  CPU:   39.770
  Cycle:      4 Energy:    -18503.974056  Gnorm:      0.126075  CPU:   44.737
  Cycle:      5 Energy:    -18504.040390  Gnorm:      0.063038  CPU:   49.714
  ** Hessian has required structure
  ** Hessian has required structure
  Cycle:      6 Energy:    -18504.057035  Gnorm:      0.031519  CPU:   63.840
  ** Hessian has required structure
  Cycle:      7 Energy:    -18504.061196  Gnorm:      0.015759  CPU:   70.259
  ** Hessian has required structure
  Cycle:      8 Energy:    -18504.062236  Gnorm:      0.007880  CPU:   75.667
  ** Hessian has required structure
  Cycle:      9 Energy:    -18504.062413  Gnorm:      0.005516  CPU:   79.742
  ** Hessian has required structure
  Cycle:     10 Energy:    -18504.062500  Gnorm:      0.003861  CPU:   83.801
  ** Hessian has required structure
  Cycle:     11 Energy:    -18504.062580  Gnorm:      0.000717  CPU:   88.663
  ** Hessian has required structure


  **** Optimisation achieved ****


  Final energy =  -18504.06258312 eV      
  Final Gnorm  =       0.00007169

  Components of energy : 

--------------------------------------------------------------------------------
  Interatomic potentials     =        5061.74259813 eV    
  Three-body potentials      =           3.56081900 eV    
  Monopole - monopole (real) =      -17669.70056496 eV    
  Monopole - monopole (recip)=       -5899.66543528 eV    
  Monopole - monopole (total)=      -23569.36600024 eV    
--------------------------------------------------------------------------------
  Total lattice energy       =      -18504.06258312 eV    
--------------------------------------------------------------------------------
  Total lattice energy       =        -1785359.1788 kJ/(mole unit cells)
--------------------------------------------------------------------------------

  Final fractional coordinates of atoms :

--------------------------------------------------------------------------------
   No.  Atomic        x           y          z          Radius
        Label       (Frac)      (Frac)     (Frac)       (Angs) 
--------------------------------------------------------------------------------
     1  Si    c     0.921653    0.721451    0.623439    0.000000
     2  Si    c     0.280801    0.211463    0.778182    0.000000
     3  Si    c     0.565187    0.720647    0.427379    0.000000
     4  Si    c     0.664305    0.201427    0.927483    0.000000
     5  Si    c     0.849056    0.570994    0.808481    0.000000
     6  Si    c     0.077091    0.473971    0.315124    0.000000
     7  O     c     0.918089    0.700907    0.700796    0.000000
     8  O     c     0.899511    0.653490    0.581327    0.000000
     9  O     c     0.350065    0.257398    0.819365    0.000000
    10  O     c     0.527475    0.653982    0.381420    0.000000
    11  O     c     0.680143    0.154561    0.879028    0.000000
    12  O     c     0.879690    0.542661    0.753770    0.000000
    13  O     c     0.871239    0.751504    0.608686    0.000000
    14  O     c     0.592554    0.194135    0.906305    0.000000
    15  O     c     0.773204    0.555436    0.786440    0.000000
    16  O     c     0.997719    0.779645    0.602593    0.000000
    17  O     c     0.997719    0.412882    0.317505    0.000000
    18  O     c     0.250585    0.130898    0.792859    0.000000
    19  O     c     0.223209    0.229955    0.799727    0.000000
    20  O     c     0.540676    0.697450    0.502925    0.000000
    21  O     c     0.547557    0.779384    0.404750    0.000000
    22  O     c     0.081213    0.546212    0.309668    0.000000
    23  O     c     0.721328    0.280856    0.920557    0.000000
    24  O     c     0.661876    0.175470    0.002925    0.000000
    25  Si    c     0.204667    0.928399    0.623439    0.000000
    26  Si    c     0.073803    0.287547    0.778182    0.000000
    27  Si    c     0.849006    0.571933    0.427379    0.000000
    28  Si    c     0.467343    0.671051    0.927483    0.000000
    29  Si    c     0.282526    0.855802    0.808481    0.000000
    30  Si    c     0.607585    0.083837    0.315124    0.000000
    31  O     c     0.221648    0.924835    0.700796    0.000000
    32  O     c     0.250486    0.906257    0.581327    0.000000
    33  O     c     0.097132    0.356811    0.819365    0.000000
    34  O     c     0.877958    0.534221    0.381420    0.000000
    35  O     c     0.530048    0.686889    0.879028    0.000000
    36  O     c     0.341494    0.886436    0.753770    0.000000
    37  O     c     0.124199    0.877985    0.608686    0.000000
    38  O     c     0.402884    0.599300    0.906305    0.000000
    39  O     c     0.222234    0.779950    0.786440    0.000000
    40  O     c     0.222539    0.004465    0.602593    0.000000
    41  O     c     0.589302    0.004465    0.317505    0.000000
    42  O     c     0.124152    0.257331    0.792859    0.000000
    43  O     c     0.997719    0.229955    0.799727    0.000000
    44  O     c     0.847691    0.547422    0.502925    0.000000
    45  O     c     0.772638    0.554303    0.404750    0.000000
    46  O     c     0.539466    0.087959    0.309668    0.000000
    47  O     c     0.444937    0.728074    0.920557    0.000000
    48  O     c     0.490871    0.668622    0.002925    0.000000
    49  Si    c     0.280733    0.211413    0.623439    0.000000
    50  Si    c     0.790721    0.080549    0.778182    0.000000
    51  Si    c     0.281537    0.855752    0.427379    0.000000
    52  Si    c     0.800757    0.474089    0.927483    0.000000
    53  Si    c     0.431189    0.289272    0.808481    0.000000
    54  Si    c     0.528213    0.614331    0.315124    0.000000
    55  O     c     0.301277    0.228394    0.700796    0.000000
    56  O     c     0.348694    0.257232    0.581327    0.000000
    57  O     c     0.744786    0.103878    0.819365    0.000000
    58  O     c     0.348202    0.884704    0.381420    0.000000
    59  O     c     0.847623    0.536794    0.879028    0.000000
    60  O     c     0.459523    0.348240    0.753770    0.000000
    61  O     c     0.250680    0.130945    0.608686    0.000000
    62  O     c     0.808049    0.409630    0.906305    0.000000
    63  O     c     0.446748    0.228980    0.786440    0.000000
    64  O     c     0.222539    0.229285    0.602593    0.000000
    65  O     c     0.589302    0.596048    0.317505    0.000000
    66  O     c     0.871286    0.130898    0.792859    0.000000
    67  O     c     0.772229    0.004465    0.799727    0.000000
    68  O     c     0.304734    0.854437    0.502925    0.000000
    69  O     c     0.222800    0.779384    0.404750    0.000000
    70  O     c     0.455972    0.546212    0.309668    0.000000
    71  O     c     0.721328    0.451683    0.920557    0.000000
    72  O     c     0.826714    0.497617    0.002925    0.000000
    73  Si    c     0.073785    0.287479    0.623439    0.000000
    74  Si    c     0.714637    0.797467    0.778182    0.000000
    75  Si    c     0.430251    0.288283    0.427379    0.000000
    76  Si    c     0.331133    0.807503    0.927483    0.000000
    77  Si    c     0.146382    0.437935    0.808481    0.000000
    78  Si    c     0.918347    0.534959    0.315124    0.000000
    79  O     c     0.077348    0.308023    0.700796    0.000000
    80  O     c     0.095927    0.355440    0.581327    0.000000
    81  O     c     0.645373    0.751532    0.819365    0.000000
    82  O     c     0.467963    0.354948    0.381420    0.000000
    83  O     c     0.315295    0.854369    0.879028    0.000000
    84  O     c     0.115748    0.466269    0.753770    0.000000
    85  O     c     0.124199    0.257426    0.608686    0.000000
    86  O     c     0.402884    0.814795    0.906305    0.000000
    87  O     c     0.222234    0.453494    0.786440    0.000000
    88  O     c     0.997719    0.229285    0.602593    0.000000
    89  O     c     0.997719    0.596048    0.317505    0.000000
    90  O     c     0.744853    0.878032    0.792859    0.000000
    91  O     c     0.772229    0.778975    0.799727    0.000000
    92  O     c     0.454762    0.311480    0.502925    0.000000
    93  O     c     0.447881    0.229546    0.404750    0.000000
    94  O     c     0.914225    0.462718    0.309668    0.000000
    95  O     c     0.274110    0.728074    0.920557    0.000000
    96  O     c     0.333562    0.833460    0.002925    0.000000
    97  Si    c     0.790771    0.080531    0.623439    0.000000
    98  Si    c     0.921635    0.721383    0.778182    0.000000
    99  Si    c     0.146432    0.436997    0.427379    0.000000
   100  Si    c     0.528095    0.337879    0.927483    0.000000
   101  Si    c     0.712912    0.153128    0.808481    0.000000
   102  Si    c     0.387853    0.925093    0.315124    0.000000
   103  O     c     0.773790    0.084094    0.700796    0.000000
   104  O     c     0.744952    0.102673    0.581327    0.000000
   105  O     c     0.898305    0.652119    0.819365    0.000000
   106  O     c     0.117480    0.474709    0.381420    0.000000
   107  O     c     0.465390    0.322041    0.879028    0.000000
   108  O     c     0.653944    0.122494    0.753770    0.000000
   109  O     c     0.871239    0.130945    0.608686    0.000000
   110  O     c     0.592554    0.409630    0.906305    0.000000
   111  O     c     0.773204    0.228980    0.786440    0.000000
   112  O     c     0.772899    0.004465    0.602593    0.000000
   113  O     c     0.406136    0.004465    0.317505    0.000000
   114  O     c     0.871286    0.751599    0.792859    0.000000
   115  O     c     0.997719    0.778975    0.799727    0.000000
   116  O     c     0.147747    0.461508    0.502925    0.000000
   117  O     c     0.222800    0.454627    0.404750    0.000000
   118  O     c     0.455972    0.920971    0.309668    0.000000
   119  O     c     0.550501    0.280856    0.920557    0.000000
   120  O     c     0.504567    0.340308    0.002925    0.000000
   121  Si    c     0.714705    0.797517    0.623439    0.000000
   122  Si    c     0.204717    0.928381    0.778182    0.000000
   123  Si    c     0.713901    0.153178    0.427379    0.000000
   124  Si    c     0.194681    0.534841    0.927483    0.000000
   125  Si    c     0.564248    0.719658    0.808481    0.000000
   126  Si    c     0.467225    0.394599    0.315124    0.000000
   127  O     c     0.694161    0.780536    0.700796    0.000000
   128  O     c     0.646744    0.751698    0.581327    0.000000
   129  O     c     0.250652    0.905052    0.819365    0.000000
   130  O     c     0.647236    0.124226    0.381420    0.000000
   131  O     c     0.147815    0.472136    0.879028    0.000000
   132  O     c     0.535915    0.660690    0.753770    0.000000
   133  O     c     0.744758    0.877985    0.608686    0.000000
   134  O     c     0.187389    0.599300    0.906305    0.000000
   135  O     c     0.548690    0.779950    0.786440    0.000000
   136  O     c     0.772899    0.779645    0.602593    0.000000
   137  O     c     0.406136    0.412882    0.317505    0.000000
   138  O     c     0.124152    0.878032    0.792859    0.000000
   139  O     c     0.223209    0.004465    0.799727    0.000000
   140  O     c     0.690704    0.154493    0.502925    0.000000
   141  O     c     0.772638    0.229546    0.404750    0.000000
   142  O     c     0.539466    0.462718    0.309668    0.000000
   143  O     c     0.274110    0.557247    0.920557    0.000000
   144  O     c     0.168724    0.511313    0.002925    0.000000
   145  Si    c     0.280733    0.080531    0.382411    0.000000
   146  Si    c     0.790721    0.721383    0.227668    0.000000
   147  Si    c     0.281537    0.436997    0.578471    0.000000
   148  Si    c     0.800757    0.337879    0.078367    0.000000
   149  Si    c     0.431189    0.153128    0.197369    0.000000
   150  Si    c     0.528213    0.925093    0.690726    0.000000
   151  O     c     0.301277    0.084094    0.305054    0.000000
   152  O     c     0.348694    0.102673    0.424523    0.000000
   153  O     c     0.744786    0.652119    0.186485    0.000000
   154  O     c     0.348202    0.474709    0.624430    0.000000
   155  O     c     0.847623    0.322041    0.126822    0.000000
   156  O     c     0.459523    0.122494    0.252080    0.000000
   157  O     c     0.250680    0.130945    0.397164    0.000000
   158  O     c     0.808049    0.409630    0.099545    0.000000
   159  O     c     0.446748    0.228980    0.219410    0.000000
   160  O     c     0.222539    0.004465    0.403257    0.000000
   161  O     c     0.589302    0.004465    0.688345    0.000000
   162  O     c     0.871286    0.751599    0.212991    0.000000
   163  O     c     0.772229    0.778975    0.206123    0.000000
   164  O     c     0.304733    0.461508    0.502925    0.000000
   165  O     c     0.222800    0.454627    0.601100    0.000000
   166  O     c     0.455972    0.920971    0.696182    0.000000
   167  O     c     0.721328    0.280856    0.085293    0.000000
   168  O     c     0.826714    0.340308    0.002925    0.000000
   169  Si    c     0.204667    0.287479    0.382411    0.000000
   170  Si    c     0.073803    0.797467    0.227668    0.000000
   171  Si    c     0.849006    0.288283    0.578471    0.000000
   172  Si    c     0.467343    0.807503    0.078367    0.000000
   173  Si    c     0.282526    0.437935    0.197369    0.000000
   174  Si    c     0.607585    0.534959    0.690726    0.000000
[...]
    468 O     s       0.004588     -0.002748     -0.000000      0.000000
    469 O     s       0.001336      0.001363      0.000037      0.000000
    470 O     s      -0.001915      0.002141     -0.002591      0.000000
    471 O     s      -0.000485     -0.001485      0.003639      0.000000
    472 O     s       0.002882     -0.002283      0.001288      0.000000
    473 O     s       0.002974      0.000306      0.001382      0.000000
    474 O     s       0.001387      0.000455      0.000525      0.000000
    475 O     s      -0.003893      0.000001     -0.002507      0.000000
    476 O     s       0.001012     -0.000000     -0.002610      0.000000
    477 O     s       0.002142     -0.000000     -0.002517      0.000000
    478 O     s      -0.001672     -0.001672     -0.003174      0.000000
    479 O     s       0.001063      0.001063      0.000167      0.000000
    480 O     s       0.003740     -0.003740      0.002653      0.000000
    481 O     s       0.003133     -0.001567      0.003353      0.000000
    482 O     s       0.004074     -0.001820     -0.000000      0.000000
    483 O     s       0.002751     -0.002751     -0.002245      0.000000
    484 O     s      -0.001235      0.001235     -0.000521      0.000000
    485 O     s       0.000001     -0.002573     -0.001400      0.000000
    486 O     s       0.002747      0.001840      0.000000      0.000000
    487 O     s      -0.001364      0.002700      0.000037      0.000000
    488 O     s      -0.002141      0.000226     -0.002591      0.000000
    489 O     s       0.001485     -0.001970      0.003639      0.000000
    490 O     s       0.002282      0.000599      0.001288      0.000000
    491 O     s      -0.000307      0.003280      0.001382      0.000000
    492 O     s      -0.000455      0.001842      0.000525      0.000000
    493 O     s       0.000001     -0.003893     -0.002507      0.000000
    494 O     s      -0.000000      0.001012     -0.002610      0.000000
    495 O     s      -0.000000      0.002142     -0.002517      0.000000
    496 O     s       0.001673     -0.003345     -0.003174      0.000000
    497 O     s      -0.001064      0.002128      0.000167      0.000000
    498 O     s       0.003739     -0.000001      0.002653      0.000000
    499 O     s       0.001566      0.001566      0.003353      0.000000
    500 O     s       0.001820      0.002254      0.000000      0.000000
    501 O     s       0.002751     -0.000000     -0.002245      0.000000
    502 O     s      -0.001235      0.000000     -0.000521      0.000000
    503 O     s       0.002574     -0.002574     -0.001400      0.000000
    504 O     s      -0.001841      0.004588     -0.000000      0.000000
    505 O     s      -0.002700      0.001337      0.000037      0.000000
    506 O     s      -0.000226     -0.001915     -0.002591      0.000000
    507 O     s       0.001970     -0.000485      0.003639      0.000000
    508 O     s      -0.000600      0.002882      0.001288      0.000000
    509 O     s      -0.003281      0.002974      0.001382      0.000000
    510 O     s      -0.001842      0.001387      0.000525      0.000000
    511 O     s       0.003894     -0.003894     -0.002507      0.000000
    512 O     s      -0.001012      0.001012     -0.002610      0.000000
    513 O     s      -0.002142      0.002142     -0.002517      0.000000
    514 O     s       0.003345     -0.001673     -0.003174      0.000000
    515 O     s      -0.002128      0.001064      0.000167      0.000000
    516 O     s      -0.000001      0.003739      0.002653      0.000000
    517 O     s      -0.001567      0.003133      0.003353      0.000000
    518 O     s      -0.002255      0.004074     -0.000000      0.000000
    519 O     s      -0.000000      0.002751     -0.002245      0.000000
    520 O     s       0.000000     -0.001235     -0.000521      0.000000
    521 O     s       0.002573     -0.000001     -0.001400      0.000000
    522 O     s      -0.004588      0.002748     -0.000000      0.000000
    523 O     s      -0.001336     -0.001363      0.000037      0.000000
    524 O     s       0.001915     -0.002141     -0.002591      0.000000
    525 O     s       0.000485      0.001485      0.003639      0.000000
    526 O     s      -0.002882      0.002283      0.001288      0.000000
    527 O     s      -0.002974     -0.000306      0.001382      0.000000
    528 O     s      -0.001387     -0.000455      0.000525      0.000000
    529 O     s       0.003893     -0.000001     -0.002507      0.000000
    530 O     s      -0.001012      0.000000     -0.002610      0.000000
    531 O     s      -0.002142      0.000000     -0.002517      0.000000
    532 O     s       0.001672      0.001672     -0.003174      0.000000
    533 O     s      -0.001063     -0.001063      0.000167      0.000000
    534 O     s      -0.003740      0.003740      0.002653      0.000000
    535 O     s      -0.003133      0.001567      0.003353      0.000000
    536 O     s      -0.004074      0.001820      0.000000      0.000000
    537 O     s      -0.002751      0.002751     -0.002245      0.000000
    538 O     s       0.001235     -0.001235     -0.000521      0.000000
    539 O     s      -0.000001      0.002573     -0.001400      0.000000
    540 O     s      -0.002747     -0.001840     -0.000000      0.000000
    541 O     s       0.002700     -0.001364     -0.000037      0.000000
    542 O     s       0.000226     -0.002141      0.002591      0.000000
    543 O     s      -0.001970      0.001485     -0.003639      0.000000
    544 O     s       0.000599      0.002282     -0.001288      0.000000
    545 O     s       0.003280     -0.000307     -0.001382      0.000000
    546 O     s       0.001842     -0.000455     -0.000525      0.000000
    547 O     s      -0.003893      0.000001      0.002507      0.000000
    548 O     s       0.001012     -0.000000      0.002610      0.000000
    549 O     s       0.002142     -0.000000      0.002517      0.000000
    550 O     s      -0.003345      0.001673      0.003174      0.000000
    551 O     s       0.002128     -0.001064     -0.000167      0.000000
    552 O     s      -0.000001      0.003739     -0.002653      0.000000
    553 O     s       0.001566      0.001566     -0.003353      0.000000
    554 O     s       0.002254      0.001820     -0.000000      0.000000
    555 O     s      -0.000000      0.002751      0.002245      0.000000
    556 O     s       0.000000     -0.001235      0.000521      0.000000
    557 O     s      -0.002574      0.002574      0.001400      0.000000
    558 O     s       0.004588     -0.001841     -0.000000      0.000000
    559 O     s       0.001363      0.001336     -0.000037      0.000000
    560 O     s       0.002141     -0.001915      0.002591      0.000000
    561 O     s      -0.001485     -0.000485     -0.003639      0.000000
    562 O     s      -0.002283      0.002882     -0.001288      0.000000
    563 O     s       0.000306      0.002974     -0.001382      0.000000
    564 O     s       0.000455      0.001387     -0.000525      0.000000
    565 O     s       0.000001     -0.003893      0.002507      0.000000
    566 O     s      -0.000000      0.001012      0.002610      0.000000
    567 O     s      -0.000000      0.002142      0.002517      0.000000
    568 O     s      -0.001672     -0.001672      0.003174      0.000000
    569 O     s       0.001063      0.001063     -0.000167      0.000000
    570 O     s      -0.003740      0.003740     -0.002653      0.000000
    571 O     s      -0.001567      0.003133     -0.003353      0.000000
    572 O     s      -0.001820      0.004074      0.000000      0.000000
    573 O     s      -0.002751      0.002751      0.002245      0.000000
    574 O     s       0.001235     -0.001235      0.000521      0.000000
    575 O     s      -0.002573      0.000001      0.001400      0.000000
    576 O     s       0.001840      0.002747     -0.000000      0.000000
    577 O     s      -0.001337      0.002700     -0.000037      0.000000
    578 O     s       0.001915      0.000226      0.002591      0.000000
    579 O     s       0.000485     -0.001970     -0.003639      0.000000
    580 O     s      -0.002882      0.000600     -0.001288      0.000000
    581 O     s      -0.002974      0.003281     -0.001382      0.000000
    582 O     s      -0.001387      0.001842     -0.000525      0.000000
    583 O     s       0.003894     -0.003894      0.002507      0.000000
    584 O     s      -0.001012      0.001012      0.002609      0.000000
    585 O     s      -0.002142      0.002142      0.002517      0.000000
    586 O     s       0.001673     -0.003345      0.003174      0.000000
    587 O     s      -0.001064      0.002128     -0.000167      0.000000
    588 O     s      -0.003739      0.000001     -0.002653      0.000000
    589 O     s      -0.003133      0.001567     -0.003353      0.000000
    590 O     s      -0.004074      0.002255     -0.000000      0.000000
    591 O     s      -0.002751      0.000000      0.002245      0.000000
    592 O     s       0.001235     -0.000000      0.000521      0.000000
    593 O     s       0.000001     -0.002573      0.001400      0.000000
    594 O     s      -0.002748      0.004588      0.000000      0.000000
    595 O     s      -0.002700      0.001364     -0.000037      0.000000
    596 O     s      -0.000226      0.002141      0.002591      0.000000
    597 O     s       0.001970     -0.001485     -0.003639      0.000000
    598 O     s      -0.000599     -0.002282     -0.001288      0.000000
    599 O     s      -0.003280      0.000307     -0.001382      0.000000
    600 O     s      -0.001842      0.000455     -0.000525      0.000000
    601 O     s       0.003893     -0.000001      0.002507      0.000000
    602 O     s      -0.001012      0.000000      0.002610      0.000000
    603 O     s      -0.002142      0.000000      0.002517      0.000000
    604 O     s       0.003345     -0.001673      0.003174      0.000000
    605 O     s      -0.002128      0.001064     -0.000167      0.000000
    606 O     s       0.000001     -0.003739     -0.002653      0.000000
    607 O     s      -0.001566     -0.001566     -0.003353      0.000000
    608 O     s      -0.002254     -0.001820      0.000000      0.000000
    609 O     s       0.000000     -0.002751      0.002245      0.000000
    610 O     s      -0.000000      0.001235      0.000521      0.000000
    611 O     s       0.002574     -0.002574      0.001400      0.000000
    612 O     s      -0.004588      0.001841      0.000000      0.000000
    613 O     s      -0.001363     -0.001336     -0.000037      0.000000
    614 O     s      -0.002141      0.001915      0.002591      0.000000
    615 O     s       0.001485      0.000485     -0.003639      0.000000
    616 O     s       0.002283     -0.002882     -0.001288      0.000000
    617 O     s      -0.000306     -0.002974     -0.001382      0.000000
    618 O     s      -0.000455     -0.001387     -0.000525      0.000000
    619 O     s      -0.000001      0.003893      0.002507      0.000000
    620 O     s       0.000000     -0.001012      0.002610      0.000000
    621 O     s       0.000000     -0.002142      0.002517      0.000000
    622 O     s       0.001672      0.001672      0.003174      0.000000
    623 O     s      -0.001063     -0.001063     -0.000167      0.000000
    624 O     s       0.003740     -0.003740     -0.002653      0.000000
    625 O     s       0.001567     -0.003133     -0.003353      0.000000
    626 O     s       0.001820     -0.004074     -0.000000      0.000000
    627 O     s       0.002751     -0.002751      0.002245      0.000000
    628 O     s      -0.001235      0.001235      0.000521      0.000000
    629 O     s       0.002573     -0.000001      0.001400      0.000000
    630 O     s      -0.001840     -0.002747      0.000000      0.000000
    631 O     s       0.001337     -0.002700     -0.000037      0.000000
    632 O     s      -0.001915     -0.000226      0.002591      0.000000
    633 O     s      -0.000485      0.001970     -0.003639      0.000000
    634 O     s       0.002882     -0.000600     -0.001288      0.000000
    635 O     s       0.002974     -0.003281     -0.001382      0.000000
    636 O     s       0.001387     -0.001842     -0.000525      0.000000
    637 O     s      -0.003894      0.003894      0.002507      0.000000
    638 O     s       0.001012     -0.001012      0.002610      0.000000
    639 O     s       0.002142     -0.002142      0.002517      0.000000
    640 O     s      -0.001673      0.003345      0.003174      0.000000
    641 O     s       0.001064     -0.002128     -0.000167      0.000000
    642 O     s       0.003739     -0.000001     -0.002653      0.000000
    643 O     s       0.003133     -0.001567     -0.003353      0.000000
    644 O     s       0.004074     -0.002255     -0.000000      0.000000
    645 O     s       0.002751     -0.000000      0.002245      0.000000
    646 O     s      -0.001235      0.000000      0.000521      0.000000
    647 O     s      -0.000001      0.002573      0.001400      0.000000
    648 O     s       0.002748     -0.004588     -0.000000      0.000000
    649 O     s      -0.001364      0.002700     -0.000037      0.000000
    650 O     s      -0.002141      0.000226      0.002591      0.000000
    651 O     s       0.001485     -0.001970     -0.003639      0.000000
    652 O     s       0.002282      0.000599     -0.001288      0.000000
    653 O     s      -0.000307      0.003280     -0.001382      0.000000
    654 O     s      -0.000455      0.001842     -0.000525      0.000000
    655 O     s      -0.002700      0.001337     -0.000037      0.000000
    656 O     s      -0.000226     -0.001915      0.002591      0.000000
    657 O     s       0.001970     -0.000485     -0.003639      0.000000
    658 O     s      -0.000600      0.002882     -0.001288      0.000000
    659 O     s      -0.003281      0.002974     -0.001382      0.000000
    660 O     s      -0.001842      0.001387     -0.000525      0.000000
    661 O     s      -0.001336     -0.001363     -0.000037      0.000000
    662 O     s       0.001915     -0.002141      0.002591      0.000000
    663 O     s       0.000485      0.001485     -0.003639      0.000000
    664 O     s      -0.002882      0.002283     -0.001288      0.000000
    665 O     s      -0.002974     -0.000306     -0.001382      0.000000
    666 O     s      -0.001387     -0.000455     -0.000525      0.000000
    667 O     s       0.001364     -0.002700     -0.000037      0.000000
    668 O     s       0.002141     -0.000226      0.002591      0.000000
    669 O     s      -0.001485      0.001970     -0.003639      0.000000
    670 O     s      -0.002282     -0.000599     -0.001288      0.000000
    671 O     s       0.000307     -0.003280     -0.001382      0.000000
    672 O     s       0.000455     -0.001842     -0.000525      0.000000
    673 O     s       0.002700     -0.001337     -0.000037      0.000000
    674 O     s       0.000226      0.001915      0.002591      0.000000
    675 O     s      -0.001970      0.000485     -0.003639      0.000000
    676 O     s       0.000600     -0.002882     -0.001288      0.000000
    677 O     s       0.003281     -0.002974     -0.001382      0.000000
    678 O     s       0.001842     -0.001387     -0.000525      0.000000
    679 O     s       0.001336      0.001363     -0.000037      0.000000
    680 O     s      -0.001915      0.002141      0.002591      0.000000
    681 O     s      -0.000485     -0.001485     -0.003639      0.000000
    682 O     s       0.002882     -0.002283     -0.001288      0.000000
    683 O     s       0.002974      0.000306     -0.001382      0.000000
    684 O     s       0.001387      0.000455     -0.000525      0.000000
    685 O     s      -0.002700      0.001364      0.000037      0.000000
    686 O     s      -0.000226      0.002141     -0.002591      0.000000
    687 O     s       0.001970     -0.001485      0.003639      0.000000
    688 O     s      -0.000599     -0.002282      0.001288      0.000000
    689 O     s      -0.003280      0.000307      0.001382      0.000000
    690 O     s      -0.001842      0.000455      0.000525      0.000000
    691 O     s      -0.001363     -0.001336      0.000037      0.000000
    692 O     s      -0.002141      0.001915     -0.002591      0.000000
    693 O     s       0.001485      0.000485      0.003639      0.000000
    694 O     s       0.002283     -0.002882      0.001288      0.000000
    695 O     s      -0.000306     -0.002974      0.001382      0.000000
    696 O     s      -0.000455     -0.001387      0.000525      0.000000
    697 O     s       0.001337     -0.002700      0.000037      0.000000
    698 O     s      -0.001915     -0.000226     -0.002591      0.000000
    699 O     s      -0.000485      0.001970      0.003639      0.000000
    700 O     s       0.002882     -0.000600      0.001288      0.000000
    701 O     s       0.002974     -0.003281      0.001382      0.000000
    702 O     s       0.001387     -0.001842      0.000525      0.000000
    703 O     s       0.002700     -0.001364      0.000037      0.000000
    704 O     s       0.000226     -0.002141     -0.002591      0.000000
    705 O     s      -0.001970      0.001485      0.003639      0.000000
    706 O     s       0.000599      0.002282      0.001288      0.000000
    707 O     s       0.003280     -0.000307      0.001382      0.000000
    708 O     s       0.001842     -0.000455      0.000525      0.000000
    709 O     s       0.001363      0.001336      0.000037      0.000000
    710 O     s       0.002141     -0.001915     -0.002591      0.000000
    711 O     s      -0.001485     -0.000485      0.003639      0.000000
    712 O     s      -0.002283      0.002882      0.001288      0.000000
    713 O     s       0.000306      0.002974      0.001382      0.000000
    714 O     s       0.000455      0.001387      0.000525      0.000000
    715 O     s      -0.001337      0.002700      0.000037      0.000000
    716 O     s       0.001915      0.000226     -0.002591      0.000000
    717 O     s       0.000485     -0.001970      0.003639      0.000000
    718 O     s      -0.002882      0.000600      0.001288      0.000000
    719 O     s      -0.002974      0.003281      0.001382      0.000000
    720 O     s      -0.001387      0.001842      0.000525      0.000000
--------------------------------------------------------------------------------
  Maximum abs         0.004588      0.004588      0.003639      0.000000
--------------------------------------------------------------------------------


  Time to end of optimisation =      94.0389 seconds


  Peak dynamic memory used =      21.54 MB 


  Timing analysis for GULP :

--------------------------------------------------------------------------------
  Task / Subroutine                                          Time (Seconds)
--------------------------------------------------------------------------------
  Calculation of reciprocal space energy and derivatives         25.9699
  Calculation of real space energy and derivatives               41.6117
  Calculation of three-body energy and derivatives               14.6433
  Calculation and manipulation of Hessian matrix                 11.3573
  Calculation of matrix inversion                                 0.3596
  Symmetry generation of equivalent positions                     0.0011
--------------------------------------------------------------------------------
  Total CPU time                                                 94.0390
--------------------------------------------------------------------------------


  Dump file written as ReferenceDataBase/8328529_111.grs
  CIF file written as ReferenceDataBase/8328529_111_opt.cif


  Job Finished at 00:45.46  6th February   2024                               

